V -t * -v 1.0a5 -a 0
A -t * -n 1 -p 0 -o 0xffffffff -c 31 -a 1
A -t * -h 1 -m 2147483647 -s 0
c -t * -i 1 -n Blue
c -t * -i 2 -n Red
n -t * -a 0 -s 0 -S UP -v circle -c black -i black
n -t * -a 1 -s 1 -S UP -v circle -c black -i black
n -t * -a 2 -s 2 -S UP -v circle -c black -i black
n -t * -a 3 -s 3 -S UP -v circle -c black -i black
l -t * -s 0 -d 1 -S UP -r 10000000 -D 0.01 -c black -o right
l -t * -s 1 -d 2 -S UP -r 10000000 -D 1 -c black -o right
l -t * -s 2 -d 3 -S UP -r 10000000 -D 0.01 -c black -o right
q -t * -s 2 -d 1 -a 0.5
q -t * -s 1 -d 2 -a 0.5
q -t * -s 1 -d 0 -a 0.5
q -t * -s 0 -d 1 -a 0.5
+ -t 1 -s 0 -d 1 -p tcp -e 40 -c 1 -i 0 -a 1 -x {0.0 3.0 0 ------- null}
- -t 1 -s 0 -d 1 -p tcp -e 40 -c 1 -i 0 -a 1 -x {0.0 3.0 0 ------- null}
h -t 1 -s 0 -d 1 -p tcp -e 40 -c 1 -i 0 -a 1 -x {0.0 3.0 -1 ------- null}
r -t 1.010032 -s 0 -d 1 -p tcp -e 40 -c 1 -i 0 -a 1 -x {0.0 3.0 0 ------- null}
+ -t 1.010032 -s 1 -d 2 -p tcp -e 40 -c 1 -i 0 -a 1 -x {0.0 3.0 0 ------- null}
- -t 1.010032 -s 1 -d 2 -p tcp -e 40 -c 1 -i 0 -a 1 -x {0.0 3.0 0 ------- null}
h -t 1.010032 -s 1 -d 2 -p tcp -e 40 -c 1 -i 0 -a 1 -x {0.0 3.0 -1 ------- null}
r -t 2.010064 -s 1 -d 2 -p tcp -e 40 -c 1 -i 0 -a 1 -x {0.0 3.0 0 ------- null}
+ -t 2.010064 -s 2 -d 3 -p tcp -e 40 -c 1 -i 0 -a 1 -x {0.0 3.0 0 ------- null}
- -t 2.010064 -s 2 -d 3 -p tcp -e 40 -c 1 -i 0 -a 1 -x {0.0 3.0 0 ------- null}
h -t 2.010064 -s 2 -d 3 -p tcp -e 40 -c 1 -i 0 -a 1 -x {0.0 3.0 -1 ------- null}
r -t 2.020096 -s 2 -d 3 -p tcp -e 40 -c 1 -i 0 -a 1 -x {0.0 3.0 0 ------- null}
+ -t 2.020096 -s 3 -d 2 -p ack -e 40 -c 1 -i 1 -a 1 -x {3.0 0.0 0 ------- null}
- -t 2.020096 -s 3 -d 2 -p ack -e 40 -c 1 -i 1 -a 1 -x {3.0 0.0 0 ------- null}
h -t 2.020096 -s 3 -d 2 -p ack -e 40 -c 1 -i 1 -a 1 -x {3.0 0.0 -1 ------- null}
r -t 2.030128 -s 3 -d 2 -p ack -e 40 -c 1 -i 1 -a 1 -x {3.0 0.0 0 ------- null}
+ -t 2.030128 -s 2 -d 1 -p ack -e 40 -c 1 -i 1 -a 1 -x {3.0 0.0 0 ------- null}
- -t 2.030128 -s 2 -d 1 -p ack -e 40 -c 1 -i 1 -a 1 -x {3.0 0.0 0 ------- null}
h -t 2.030128 -s 2 -d 1 -p ack -e 40 -c 1 -i 1 -a 1 -x {3.0 0.0 -1 ------- null}
r -t 3.03016 -s 2 -d 1 -p ack -e 40 -c 1 -i 1 -a 1 -x {3.0 0.0 0 ------- null}
+ -t 3.03016 -s 1 -d 0 -p ack -e 40 -c 1 -i 1 -a 1 -x {3.0 0.0 0 ------- null}
- -t 3.03016 -s 1 -d 0 -p ack -e 40 -c 1 -i 1 -a 1 -x {3.0 0.0 0 ------- null}
h -t 3.03016 -s 1 -d 0 -p ack -e 40 -c 1 -i 1 -a 1 -x {3.0 0.0 -1 ------- null}
r -t 3.040192 -s 1 -d 0 -p ack -e 40 -c 1 -i 1 -a 1 -x {3.0 0.0 0 ------- null}
+ -t 3.040192 -s 0 -d 1 -p tcp -e 1040 -c 1 -i 2 -a 1 -x {0.0 3.0 1 ------- null}
- -t 3.040192 -s 0 -d 1 -p tcp -e 1040 -c 1 -i 2 -a 1 -x {0.0 3.0 1 ------- null}
h -t 3.040192 -s 0 -d 1 -p tcp -e 1040 -c 1 -i 2 -a 1 -x {0.0 3.0 -1 ------- null}
+ -t 3.040192 -s 0 -d 1 -p tcp -e 1040 -c 1 -i 3 -a 1 -x {0.0 3.0 2 ------- null}
- -t 3.041024 -s 0 -d 1 -p tcp -e 1040 -c 1 -i 3 -a 1 -x {0.0 3.0 2 ------- null}
h -t 3.041024 -s 0 -d 1 -p tcp -e 1040 -c 1 -i 3 -a 1 -x {0.0 3.0 -1 ------- null}
r -t 3.051024 -s 0 -d 1 -p tcp -e 1040 -c 1 -i 2 -a 1 -x {0.0 3.0 1 ------- null}
+ -t 3.051024 -s 1 -d 2 -p tcp -e 1040 -c 1 -i 2 -a 1 -x {0.0 3.0 1 ------- null}
- -t 3.051024 -s 1 -d 2 -p tcp -e 1040 -c 1 -i 2 -a 1 -x {0.0 3.0 1 ------- null}
h -t 3.051024 -s 1 -d 2 -p tcp -e 1040 -c 1 -i 2 -a 1 -x {0.0 3.0 -1 ------- null}
r -t 3.051856 -s 0 -d 1 -p tcp -e 1040 -c 1 -i 3 -a 1 -x {0.0 3.0 2 ------- null}
+ -t 3.051856 -s 1 -d 2 -p tcp -e 1040 -c 1 -i 3 -a 1 -x {0.0 3.0 2 ------- null}
- -t 3.051856 -s 1 -d 2 -p tcp -e 1040 -c 1 -i 3 -a 1 -x {0.0 3.0 2 ------- null}
h -t 3.051856 -s 1 -d 2 -p tcp -e 1040 -c 1 -i 3 -a 1 -x {0.0 3.0 -1 ------- null}
r -t 4.051856 -s 1 -d 2 -p tcp -e 1040 -c 1 -i 2 -a 1 -x {0.0 3.0 1 ------- null}
+ -t 4.051856 -s 2 -d 3 -p tcp -e 1040 -c 1 -i 2 -a 1 -x {0.0 3.0 1 ------- null}
- -t 4.051856 -s 2 -d 3 -p tcp -e 1040 -c 1 -i 2 -a 1 -x {0.0 3.0 1 ------- null}
h -t 4.051856 -s 2 -d 3 -p tcp -e 1040 -c 1 -i 2 -a 1 -x {0.0 3.0 -1 ------- null}
r -t 4.052688 -s 1 -d 2 -p tcp -e 1040 -c 1 -i 3 -a 1 -x {0.0 3.0 2 ------- null}
+ -t 4.052688 -s 2 -d 3 -p tcp -e 1040 -c 1 -i 3 -a 1 -x {0.0 3.0 2 ------- null}
- -t 4.052688 -s 2 -d 3 -p tcp -e 1040 -c 1 -i 3 -a 1 -x {0.0 3.0 2 ------- null}
h -t 4.052688 -s 2 -d 3 -p tcp -e 1040 -c 1 -i 3 -a 1 -x {0.0 3.0 -1 ------- null}
r -t 4.062688 -s 2 -d 3 -p tcp -e 1040 -c 1 -i 2 -a 1 -x {0.0 3.0 1 ------- null}
+ -t 4.062688 -s 3 -d 2 -p ack -e 40 -c 1 -i 4 -a 1 -x {3.0 0.0 1 ------- null}
- -t 4.062688 -s 3 -d 2 -p ack -e 40 -c 1 -i 4 -a 1 -x {3.0 0.0 1 ------- null}
h -t 4.062688 -s 3 -d 2 -p ack -e 40 -c 1 -i 4 -a 1 -x {3.0 0.0 -1 ------- null}
r -t 4.06352 -s 2 -d 3 -p tcp -e 1040 -c 1 -i 3 -a 1 -x {0.0 3.0 2 ------- null}
+ -t 4.06352 -s 3 -d 2 -p ack -e 40 -c 1 -i 5 -a 1 -x {3.0 0.0 2 ------- null}
- -t 4.06352 -s 3 -d 2 -p ack -e 40 -c 1 -i 5 -a 1 -x {3.0 0.0 2 ------- null}
h -t 4.06352 -s 3 -d 2 -p ack -e 40 -c 1 -i 5 -a 1 -x {3.0 0.0 -1 ------- null}
r -t 4.07272 -s 3 -d 2 -p ack -e 40 -c 1 -i 4 -a 1 -x {3.0 0.0 1 ------- null}
+ -t 4.07272 -s 2 -d 1 -p ack -e 40 -c 1 -i 4 -a 1 -x {3.0 0.0 1 ------- null}
- -t 4.07272 -s 2 -d 1 -p ack -e 40 -c 1 -i 4 -a 1 -x {3.0 0.0 1 ------- null}
h -t 4.07272 -s 2 -d 1 -p ack -e 40 -c 1 -i 4 -a 1 -x {3.0 0.0 -1 ------- null}
r -t 4.073552 -s 3 -d 2 -p ack -e 40 -c 1 -i 5 -a 1 -x {3.0 0.0 2 ------- null}
+ -t 4.073552 -s 2 -d 1 -p ack -e 40 -c 1 -i 5 -a 1 -x {3.0 0.0 2 ------- null}
- -t 4.073552 -s 2 -d 1 -p ack -e 40 -c 1 -i 5 -a 1 -x {3.0 0.0 2 ------- null}
h -t 4.073552 -s 2 -d 1 -p ack -e 40 -c 1 -i 5 -a 1 -x {3.0 0.0 -1 ------- null}
r -t 5.072752 -s 2 -d 1 -p ack -e 40 -c 1 -i 4 -a 1 -x {3.0 0.0 1 ------- null}
+ -t 5.072752 -s 1 -d 0 -p ack -e 40 -c 1 -i 4 -a 1 -x {3.0 0.0 1 ------- null}
- -t 5.072752 -s 1 -d 0 -p ack -e 40 -c 1 -i 4 -a 1 -x {3.0 0.0 1 ------- null}
h -t 5.072752 -s 1 -d 0 -p ack -e 40 -c 1 -i 4 -a 1 -x {3.0 0.0 -1 ------- null}
r -t 5.073584 -s 2 -d 1 -p ack -e 40 -c 1 -i 5 -a 1 -x {3.0 0.0 2 ------- null}
+ -t 5.073584 -s 1 -d 0 -p ack -e 40 -c 1 -i 5 -a 1 -x {3.0 0.0 2 ------- null}
- -t 5.073584 -s 1 -d 0 -p ack -e 40 -c 1 -i 5 -a 1 -x {3.0 0.0 2 ------- null}
h -t 5.073584 -s 1 -d 0 -p ack -e 40 -c 1 -i 5 -a 1 -x {3.0 0.0 -1 ------- null}
r -t 5.082784 -s 1 -d 0 -p ack -e 40 -c 1 -i 4 -a 1 -x {3.0 0.0 1 ------- null}
+ -t 5.082784 -s 0 -d 1 -p tcp -e 1040 -c 1 -i 6 -a 1 -x {0.0 3.0 3 ------- null}
- -t 5.082784 -s 0 -d 1 -p tcp -e 1040 -c 1 -i 6 -a 1 -x {0.0 3.0 3 ------- null}
h -t 5.082784 -s 0 -d 1 -p tcp -e 1040 -c 1 -i 6 -a 1 -x {0.0 3.0 -1 ------- null}
+ -t 5.082784 -s 0 -d 1 -p tcp -e 1040 -c 1 -i 7 -a 1 -x {0.0 3.0 4 ------- null}
- -t 5.083616 -s 0 -d 1 -p tcp -e 1040 -c 1 -i 7 -a 1 -x {0.0 3.0 4 ------- null}
h -t 5.083616 -s 0 -d 1 -p tcp -e 1040 -c 1 -i 7 -a 1 -x {0.0 3.0 -1 ------- null}
r -t 5.083616 -s 1 -d 0 -p ack -e 40 -c 1 -i 5 -a 1 -x {3.0 0.0 2 ------- null}
+ -t 5.083616 -s 0 -d 1 -p tcp -e 1040 -c 1 -i 8 -a 1 -x {0.0 3.0 5 ------- null}
+ -t 5.083616 -s 0 -d 1 -p tcp -e 1040 -c 1 -i 9 -a 1 -x {0.0 3.0 6 ------- null}
- -t 5.084448 -s 0 -d 1 -p tcp -e 1040 -c 1 -i 8 -a 1 -x {0.0 3.0 5 ------- null}
h -t 5.084448 -s 0 -d 1 -p tcp -e 1040 -c 1 -i 8 -a 1 -x {0.0 3.0 -1 ------- null}
- -t 5.08528 -s 0 -d 1 -p tcp -e 1040 -c 1 -i 9 -a 1 -x {0.0 3.0 6 ------- null}
h -t 5.08528 -s 0 -d 1 -p tcp -e 1040 -c 1 -i 9 -a 1 -x {0.0 3.0 -1 ------- null}
r -t 5.093616 -s 0 -d 1 -p tcp -e 1040 -c 1 -i 6 -a 1 -x {0.0 3.0 3 ------- null}
+ -t 5.093616 -s 1 -d 2 -p tcp -e 1040 -c 1 -i 6 -a 1 -x {0.0 3.0 3 ------- null}
- -t 5.093616 -s 1 -d 2 -p tcp -e 1040 -c 1 -i 6 -a 1 -x {0.0 3.0 3 ------- null}
h -t 5.093616 -s 1 -d 2 -p tcp -e 1040 -c 1 -i 6 -a 1 -x {0.0 3.0 -1 ------- null}
r -t 5.094448 -s 0 -d 1 -p tcp -e 1040 -c 1 -i 7 -a 1 -x {0.0 3.0 4 ------- null}
+ -t 5.094448 -s 1 -d 2 -p tcp -e 1040 -c 1 -i 7 -a 1 -x {0.0 3.0 4 ------- null}
- -t 5.094448 -s 1 -d 2 -p tcp -e 1040 -c 1 -i 7 -a 1 -x {0.0 3.0 4 ------- null}
h -t 5.094448 -s 1 -d 2 -p tcp -e 1040 -c 1 -i 7 -a 1 -x {0.0 3.0 -1 ------- null}
r -t 5.09528 -s 0 -d 1 -p tcp -e 1040 -c 1 -i 8 -a 1 -x {0.0 3.0 5 ------- null}
+ -t 5.09528 -s 1 -d 2 -p tcp -e 1040 -c 1 -i 8 -a 1 -x {0.0 3.0 5 ------- null}
- -t 5.09528 -s 1 -d 2 -p tcp -e 1040 -c 1 -i 8 -a 1 -x {0.0 3.0 5 ------- null}
h -t 5.09528 -s 1 -d 2 -p tcp -e 1040 -c 1 -i 8 -a 1 -x {0.0 3.0 -1 ------- null}
r -t 5.096112 -s 0 -d 1 -p tcp -e 1040 -c 1 -i 9 -a 1 -x {0.0 3.0 6 ------- null}
+ -t 5.096112 -s 1 -d 2 -p tcp -e 1040 -c 1 -i 9 -a 1 -x {0.0 3.0 6 ------- null}
- -t 5.096112 -s 1 -d 2 -p tcp -e 1040 -c 1 -i 9 -a 1 -x {0.0 3.0 6 ------- null}
h -t 5.096112 -s 1 -d 2 -p tcp -e 1040 -c 1 -i 9 -a 1 -x {0.0 3.0 -1 ------- null}
r -t 6.094448 -s 1 -d 2 -p tcp -e 1040 -c 1 -i 6 -a 1 -x {0.0 3.0 3 ------- null}
+ -t 6.094448 -s 2 -d 3 -p tcp -e 1040 -c 1 -i 6 -a 1 -x {0.0 3.0 3 ------- null}
- -t 6.094448 -s 2 -d 3 -p tcp -e 1040 -c 1 -i 6 -a 1 -x {0.0 3.0 3 ------- null}
h -t 6.094448 -s 2 -d 3 -p tcp -e 1040 -c 1 -i 6 -a 1 -x {0.0 3.0 -1 ------- null}
r -t 6.09528 -s 1 -d 2 -p tcp -e 1040 -c 1 -i 7 -a 1 -x {0.0 3.0 4 ------- null}
+ -t 6.09528 -s 2 -d 3 -p tcp -e 1040 -c 1 -i 7 -a 1 -x {0.0 3.0 4 ------- null}
- -t 6.09528 -s 2 -d 3 -p tcp -e 1040 -c 1 -i 7 -a 1 -x {0.0 3.0 4 ------- null}
h -t 6.09528 -s 2 -d 3 -p tcp -e 1040 -c 1 -i 7 -a 1 -x {0.0 3.0 -1 ------- null}
r -t 6.096112 -s 1 -d 2 -p tcp -e 1040 -c 1 -i 8 -a 1 -x {0.0 3.0 5 ------- null}
+ -t 6.096112 -s 2 -d 3 -p tcp -e 1040 -c 1 -i 8 -a 1 -x {0.0 3.0 5 ------- null}
- -t 6.096112 -s 2 -d 3 -p tcp -e 1040 -c 1 -i 8 -a 1 -x {0.0 3.0 5 ------- null}
h -t 6.096112 -s 2 -d 3 -p tcp -e 1040 -c 1 -i 8 -a 1 -x {0.0 3.0 -1 ------- null}
r -t 6.096944 -s 1 -d 2 -p tcp -e 1040 -c 1 -i 9 -a 1 -x {0.0 3.0 6 ------- null}
+ -t 6.096944 -s 2 -d 3 -p tcp -e 1040 -c 1 -i 9 -a 1 -x {0.0 3.0 6 ------- null}
- -t 6.096944 -s 2 -d 3 -p tcp -e 1040 -c 1 -i 9 -a 1 -x {0.0 3.0 6 ------- null}
h -t 6.096944 -s 2 -d 3 -p tcp -e 1040 -c 1 -i 9 -a 1 -x {0.0 3.0 -1 ------- null}
r -t 6.10528 -s 2 -d 3 -p tcp -e 1040 -c 1 -i 6 -a 1 -x {0.0 3.0 3 ------- null}
+ -t 6.10528 -s 3 -d 2 -p ack -e 40 -c 1 -i 10 -a 1 -x {3.0 0.0 3 ------- null}
- -t 6.10528 -s 3 -d 2 -p ack -e 40 -c 1 -i 10 -a 1 -x {3.0 0.0 3 ------- null}
h -t 6.10528 -s 3 -d 2 -p ack -e 40 -c 1 -i 10 -a 1 -x {3.0 0.0 -1 ------- null}
r -t 6.106112 -s 2 -d 3 -p tcp -e 1040 -c 1 -i 7 -a 1 -x {0.0 3.0 4 ------- null}
+ -t 6.106112 -s 3 -d 2 -p ack -e 40 -c 1 -i 11 -a 1 -x {3.0 0.0 4 ------- null}
- -t 6.106112 -s 3 -d 2 -p ack -e 40 -c 1 -i 11 -a 1 -x {3.0 0.0 4 ------- null}
h -t 6.106112 -s 3 -d 2 -p ack -e 40 -c 1 -i 11 -a 1 -x {3.0 0.0 -1 ------- null}
r -t 6.106944 -s 2 -d 3 -p tcp -e 1040 -c 1 -i 8 -a 1 -x {0.0 3.0 5 ------- null}
+ -t 6.106944 -s 3 -d 2 -p ack -e 40 -c 1 -i 12 -a 1 -x {3.0 0.0 5 ------- null}
- -t 6.106944 -s 3 -d 2 -p ack -e 40 -c 1 -i 12 -a 1 -x {3.0 0.0 5 ------- null}
h -t 6.106944 -s 3 -d 2 -p ack -e 40 -c 1 -i 12 -a 1 -x {3.0 0.0 -1 ------- null}
r -t 6.107776 -s 2 -d 3 -p tcp -e 1040 -c 1 -i 9 -a 1 -x {0.0 3.0 6 ------- null}
+ -t 6.107776 -s 3 -d 2 -p ack -e 40 -c 1 -i 13 -a 1 -x {3.0 0.0 6 ------- null}
- -t 6.107776 -s 3 -d 2 -p ack -e 40 -c 1 -i 13 -a 1 -x {3.0 0.0 6 ------- null}
h -t 6.107776 -s 3 -d 2 -p ack -e 40 -c 1 -i 13 -a 1 -x {3.0 0.0 -1 ------- null}
r -t 6.115312 -s 3 -d 2 -p ack -e 40 -c 1 -i 10 -a 1 -x {3.0 0.0 3 ------- null}
+ -t 6.115312 -s 2 -d 1 -p ack -e 40 -c 1 -i 10 -a 1 -x {3.0 0.0 3 ------- null}
- -t 6.115312 -s 2 -d 1 -p ack -e 40 -c 1 -i 10 -a 1 -x {3.0 0.0 3 ------- null}
h -t 6.115312 -s 2 -d 1 -p ack -e 40 -c 1 -i 10 -a 1 -x {3.0 0.0 -1 ------- null}
r -t 6.116144 -s 3 -d 2 -p ack -e 40 -c 1 -i 11 -a 1 -x {3.0 0.0 4 ------- null}
+ -t 6.116144 -s 2 -d 1 -p ack -e 40 -c 1 -i 11 -a 1 -x {3.0 0.0 4 ------- null}
- -t 6.116144 -s 2 -d 1 -p ack -e 40 -c 1 -i 11 -a 1 -x {3.0 0.0 4 ------- null}
h -t 6.116144 -s 2 -d 1 -p ack -e 40 -c 1 -i 11 -a 1 -x {3.0 0.0 -1 ------- null}
r -t 6.116976 -s 3 -d 2 -p ack -e 40 -c 1 -i 12 -a 1 -x {3.0 0.0 5 ------- null}
+ -t 6.116976 -s 2 -d 1 -p ack -e 40 -c 1 -i 12 -a 1 -x {3.0 0.0 5 ------- null}
- -t 6.116976 -s 2 -d 1 -p ack -e 40 -c 1 -i 12 -a 1 -x {3.0 0.0 5 ------- null}
h -t 6.116976 -s 2 -d 1 -p ack -e 40 -c 1 -i 12 -a 1 -x {3.0 0.0 -1 ------- null}
r -t 6.117808 -s 3 -d 2 -p ack -e 40 -c 1 -i 13 -a 1 -x {3.0 0.0 6 ------- null}
+ -t 6.117808 -s 2 -d 1 -p ack -e 40 -c 1 -i 13 -a 1 -x {3.0 0.0 6 ------- null}
- -t 6.117808 -s 2 -d 1 -p ack -e 40 -c 1 -i 13 -a 1 -x {3.0 0.0 6 ------- null}
h -t 6.117808 -s 2 -d 1 -p ack -e 40 -c 1 -i 13 -a 1 -x {3.0 0.0 -1 ------- null}
r -t 7.115344 -s 2 -d 1 -p ack -e 40 -c 1 -i 10 -a 1 -x {3.0 0.0 3 ------- null}
+ -t 7.115344 -s 1 -d 0 -p ack -e 40 -c 1 -i 10 -a 1 -x {3.0 0.0 3 ------- null}
- -t 7.115344 -s 1 -d 0 -p ack -e 40 -c 1 -i 10 -a 1 -x {3.0 0.0 3 ------- null}
h -t 7.115344 -s 1 -d 0 -p ack -e 40 -c 1 -i 10 -a 1 -x {3.0 0.0 -1 ------- null}
r -t 7.116176 -s 2 -d 1 -p ack -e 40 -c 1 -i 11 -a 1 -x {3.0 0.0 4 ------- null}
+ -t 7.116176 -s 1 -d 0 -p ack -e 40 -c 1 -i 11 -a 1 -x {3.0 0.0 4 ------- null}
- -t 7.116176 -s 1 -d 0 -p ack -e 40 -c 1 -i 11 -a 1 -x {3.0 0.0 4 ------- null}
h -t 7.116176 -s 1 -d 0 -p ack -e 40 -c 1 -i 11 -a 1 -x {3.0 0.0 -1 ------- null}
r -t 7.117008 -s 2 -d 1 -p ack -e 40 -c 1 -i 12 -a 1 -x {3.0 0.0 5 ------- null}
+ -t 7.117008 -s 1 -d 0 -p ack -e 40 -c 1 -i 12 -a 1 -x {3.0 0.0 5 ------- null}
- -t 7.117008 -s 1 -d 0 -p ack -e 40 -c 1 -i 12 -a 1 -x {3.0 0.0 5 ------- null}
h -t 7.117008 -s 1 -d 0 -p ack -e 40 -c 1 -i 12 -a 1 -x {3.0 0.0 -1 ------- null}
r -t 7.11784 -s 2 -d 1 -p ack -e 40 -c 1 -i 13 -a 1 -x {3.0 0.0 6 ------- null}
+ -t 7.11784 -s 1 -d 0 -p ack -e 40 -c 1 -i 13 -a 1 -x {3.0 0.0 6 ------- null}
- -t 7.11784 -s 1 -d 0 -p ack -e 40 -c 1 -i 13 -a 1 -x {3.0 0.0 6 ------- null}
h -t 7.11784 -s 1 -d 0 -p ack -e 40 -c 1 -i 13 -a 1 -x {3.0 0.0 -1 ------- null}
r -t 7.125376 -s 1 -d 0 -p ack -e 40 -c 1 -i 10 -a 1 -x {3.0 0.0 3 ------- null}
+ -t 7.125376 -s 0 -d 1 -p tcp -e 1040 -c 1 -i 14 -a 1 -x {0.0 3.0 7 ------- null}
- -t 7.125376 -s 0 -d 1 -p tcp -e 1040 -c 1 -i 14 -a 1 -x {0.0 3.0 7 ------- null}
h -t 7.125376 -s 0 -d 1 -p tcp -e 1040 -c 1 -i 14 -a 1 -x {0.0 3.0 -1 ------- null}
+ -t 7.125376 -s 0 -d 1 -p tcp -e 1040 -c 1 -i 15 -a 1 -x {0.0 3.0 8 ------- null}
r -t 7.126208 -s 1 -d 0 -p ack -e 40 -c 1 -i 11 -a 1 -x {3.0 0.0 4 ------- null}
+ -t 7.126208 -s 0 -d 1 -p tcp -e 1040 -c 1 -i 16 -a 1 -x {0.0 3.0 9 ------- null}
+ -t 7.126208 -s 0 -d 1 -p tcp -e 1040 -c 1 -i 17 -a 1 -x {0.0 3.0 10 ------- null}
- -t 7.126208 -s 0 -d 1 -p tcp -e 1040 -c 1 -i 15 -a 1 -x {0.0 3.0 8 ------- null}
h -t 7.126208 -s 0 -d 1 -p tcp -e 1040 -c 1 -i 15 -a 1 -x {0.0 3.0 -1 ------- null}
r -t 7.12704 -s 1 -d 0 -p ack -e 40 -c 1 -i 12 -a 1 -x {3.0 0.0 5 ------- null}
+ -t 7.12704 -s 0 -d 1 -p tcp -e 1040 -c 1 -i 18 -a 1 -x {0.0 3.0 11 ------- null}
+ -t 7.12704 -s 0 -d 1 -p tcp -e 1040 -c 1 -i 19 -a 1 -x {0.0 3.0 12 ------- null}
- -t 7.12704 -s 0 -d 1 -p tcp -e 1040 -c 1 -i 16 -a 1 -x {0.0 3.0 9 ------- null}
h -t 7.12704 -s 0 -d 1 -p tcp -e 1040 -c 1 -i 16 -a 1 -x {0.0 3.0 -1 ------- null}
r -t 7.127872 -s 1 -d 0 -p ack -e 40 -c 1 -i 13 -a 1 -x {3.0 0.0 6 ------- null}
+ -t 7.127872 -s 0 -d 1 -p tcp -e 1040 -c 1 -i 20 -a 1 -x {0.0 3.0 13 ------- null}
+ -t 7.127872 -s 0 -d 1 -p tcp -e 1040 -c 1 -i 21 -a 1 -x {0.0 3.0 14 ------- null}
- -t 7.127872 -s 0 -d 1 -p tcp -e 1040 -c 1 -i 17 -a 1 -x {0.0 3.0 10 ------- null}
h -t 7.127872 -s 0 -d 1 -p tcp -e 1040 -c 1 -i 17 -a 1 -x {0.0 3.0 -1 ------- null}
- -t 7.128704 -s 0 -d 1 -p tcp -e 1040 -c 1 -i 18 -a 1 -x {0.0 3.0 11 ------- null}
h -t 7.128704 -s 0 -d 1 -p tcp -e 1040 -c 1 -i 18 -a 1 -x {0.0 3.0 -1 ------- null}
- -t 7.129536 -s 0 -d 1 -p tcp -e 1040 -c 1 -i 19 -a 1 -x {0.0 3.0 12 ------- null}
h -t 7.129536 -s 0 -d 1 -p tcp -e 1040 -c 1 -i 19 -a 1 -x {0.0 3.0 -1 ------- null}
- -t 7.130368 -s 0 -d 1 -p tcp -e 1040 -c 1 -i 20 -a 1 -x {0.0 3.0 13 ------- null}
h -t 7.130368 -s 0 -d 1 -p tcp -e 1040 -c 1 -i 20 -a 1 -x {0.0 3.0 -1 ------- null}
- -t 7.1312 -s 0 -d 1 -p tcp -e 1040 -c 1 -i 21 -a 1 -x {0.0 3.0 14 ------- null}
h -t 7.1312 -s 0 -d 1 -p tcp -e 1040 -c 1 -i 21 -a 1 -x {0.0 3.0 -1 ------- null}
r -t 7.136208 -s 0 -d 1 -p tcp -e 1040 -c 1 -i 14 -a 1 -x {0.0 3.0 7 ------- null}
+ -t 7.136208 -s 1 -d 2 -p tcp -e 1040 -c 1 -i 14 -a 1 -x {0.0 3.0 7 ------- null}
- -t 7.136208 -s 1 -d 2 -p tcp -e 1040 -c 1 -i 14 -a 1 -x {0.0 3.0 7 ------- null}
h -t 7.136208 -s 1 -d 2 -p tcp -e 1040 -c 1 -i 14 -a 1 -x {0.0 3.0 -1 ------- null}
r -t 7.13704 -s 0 -d 1 -p tcp -e 1040 -c 1 -i 15 -a 1 -x {0.0 3.0 8 ------- null}
+ -t 7.13704 -s 1 -d 2 -p tcp -e 1040 -c 1 -i 15 -a 1 -x {0.0 3.0 8 ------- null}
- -t 7.13704 -s 1 -d 2 -p tcp -e 1040 -c 1 -i 15 -a 1 -x {0.0 3.0 8 ------- null}
h -t 7.13704 -s 1 -d 2 -p tcp -e 1040 -c 1 -i 15 -a 1 -x {0.0 3.0 -1 ------- null}
r -t 7.137872 -s 0 -d 1 -p tcp -e 1040 -c 1 -i 16 -a 1 -x {0.0 3.0 9 ------- null}
+ -t 7.137872 -s 1 -d 2 -p tcp -e 1040 -c 1 -i 16 -a 1 -x {0.0 3.0 9 ------- null}
- -t 7.137872 -s 1 -d 2 -p tcp -e 1040 -c 1 -i 16 -a 1 -x {0.0 3.0 9 ------- null}
h -t 7.137872 -s 1 -d 2 -p tcp -e 1040 -c 1 -i 16 -a 1 -x {0.0 3.0 -1 ------- null}
r -t 7.138704 -s 0 -d 1 -p tcp -e 1040 -c 1 -i 17 -a 1 -x {0.0 3.0 10 ------- null}
+ -t 7.138704 -s 1 -d 2 -p tcp -e 1040 -c 1 -i 17 -a 1 -x {0.0 3.0 10 ------- null}
- -t 7.138704 -s 1 -d 2 -p tcp -e 1040 -c 1 -i 17 -a 1 -x {0.0 3.0 10 ------- null}
h -t 7.138704 -s 1 -d 2 -p tcp -e 1040 -c 1 -i 17 -a 1 -x {0.0 3.0 -1 ------- null}
r -t 7.139536 -s 0 -d 1 -p tcp -e 1040 -c 1 -i 18 -a 1 -x {0.0 3.0 11 ------- null}
+ -t 7.139536 -s 1 -d 2 -p tcp -e 1040 -c 1 -i 18 -a 1 -x {0.0 3.0 11 ------- null}
- -t 7.139536 -s 1 -d 2 -p tcp -e 1040 -c 1 -i 18 -a 1 -x {0.0 3.0 11 ------- null}
h -t 7.139536 -s 1 -d 2 -p tcp -e 1040 -c 1 -i 18 -a 1 -x {0.0 3.0 -1 ------- null}
r -t 7.140368 -s 0 -d 1 -p tcp -e 1040 -c 1 -i 19 -a 1 -x {0.0 3.0 12 ------- null}
+ -t 7.140368 -s 1 -d 2 -p tcp -e 1040 -c 1 -i 19 -a 1 -x {0.0 3.0 12 ------- null}
- -t 7.140368 -s 1 -d 2 -p tcp -e 1040 -c 1 -i 19 -a 1 -x {0.0 3.0 12 ------- null}
h -t 7.140368 -s 1 -d 2 -p tcp -e 1040 -c 1 -i 19 -a 1 -x {0.0 3.0 -1 ------- null}
r -t 7.1412 -s 0 -d 1 -p tcp -e 1040 -c 1 -i 20 -a 1 -x {0.0 3.0 13 ------- null}
+ -t 7.1412 -s 1 -d 2 -p tcp -e 1040 -c 1 -i 20 -a 1 -x {0.0 3.0 13 ------- null}
- -t 7.1412 -s 1 -d 2 -p tcp -e 1040 -c 1 -i 20 -a 1 -x {0.0 3.0 13 ------- null}
h -t 7.1412 -s 1 -d 2 -p tcp -e 1040 -c 1 -i 20 -a 1 -x {0.0 3.0 -1 ------- null}
r -t 7.142032 -s 0 -d 1 -p tcp -e 1040 -c 1 -i 21 -a 1 -x {0.0 3.0 14 ------- null}
+ -t 7.142032 -s 1 -d 2 -p tcp -e 1040 -c 1 -i 21 -a 1 -x {0.0 3.0 14 ------- null}
- -t 7.142032 -s 1 -d 2 -p tcp -e 1040 -c 1 -i 21 -a 1 -x {0.0 3.0 14 ------- null}
h -t 7.142032 -s 1 -d 2 -p tcp -e 1040 -c 1 -i 21 -a 1 -x {0.0 3.0 -1 ------- null}
r -t 8.13704 -s 1 -d 2 -p tcp -e 1040 -c 1 -i 14 -a 1 -x {0.0 3.0 7 ------- null}
+ -t 8.13704 -s 2 -d 3 -p tcp -e 1040 -c 1 -i 14 -a 1 -x {0.0 3.0 7 ------- null}
- -t 8.13704 -s 2 -d 3 -p tcp -e 1040 -c 1 -i 14 -a 1 -x {0.0 3.0 7 ------- null}
h -t 8.13704 -s 2 -d 3 -p tcp -e 1040 -c 1 -i 14 -a 1 -x {0.0 3.0 -1 ------- null}
r -t 8.137872 -s 1 -d 2 -p tcp -e 1040 -c 1 -i 15 -a 1 -x {0.0 3.0 8 ------- null}
+ -t 8.137872 -s 2 -d 3 -p tcp -e 1040 -c 1 -i 15 -a 1 -x {0.0 3.0 8 ------- null}
- -t 8.137872 -s 2 -d 3 -p tcp -e 1040 -c 1 -i 15 -a 1 -x {0.0 3.0 8 ------- null}
h -t 8.137872 -s 2 -d 3 -p tcp -e 1040 -c 1 -i 15 -a 1 -x {0.0 3.0 -1 ------- null}
r -t 8.138704 -s 1 -d 2 -p tcp -e 1040 -c 1 -i 16 -a 1 -x {0.0 3.0 9 ------- null}
+ -t 8.138704 -s 2 -d 3 -p tcp -e 1040 -c 1 -i 16 -a 1 -x {0.0 3.0 9 ------- null}
- -t 8.138704 -s 2 -d 3 -p tcp -e 1040 -c 1 -i 16 -a 1 -x {0.0 3.0 9 ------- null}
h -t 8.138704 -s 2 -d 3 -p tcp -e 1040 -c 1 -i 16 -a 1 -x {0.0 3.0 -1 ------- null}
r -t 8.139536 -s 1 -d 2 -p tcp -e 1040 -c 1 -i 17 -a 1 -x {0.0 3.0 10 ------- null}
+ -t 8.139536 -s 2 -d 3 -p tcp -e 1040 -c 1 -i 17 -a 1 -x {0.0 3.0 10 ------- null}
- -t 8.139536 -s 2 -d 3 -p tcp -e 1040 -c 1 -i 17 -a 1 -x {0.0 3.0 10 ------- null}
h -t 8.139536 -s 2 -d 3 -p tcp -e 1040 -c 1 -i 17 -a 1 -x {0.0 3.0 -1 ------- null}
r -t 8.140368 -s 1 -d 2 -p tcp -e 1040 -c 1 -i 18 -a 1 -x {0.0 3.0 11 ------- null}
+ -t 8.140368 -s 2 -d 3 -p tcp -e 1040 -c 1 -i 18 -a 1 -x {0.0 3.0 11 ------- null}
- -t 8.140368 -s 2 -d 3 -p tcp -e 1040 -c 1 -i 18 -a 1 -x {0.0 3.0 11 ------- null}
h -t 8.140368 -s 2 -d 3 -p tcp -e 1040 -c 1 -i 18 -a 1 -x {0.0 3.0 -1 ------- null}
r -t 8.1412 -s 1 -d 2 -p tcp -e 1040 -c 1 -i 19 -a 1 -x {0.0 3.0 12 ------- null}
+ -t 8.1412 -s 2 -d 3 -p tcp -e 1040 -c 1 -i 19 -a 1 -x {0.0 3.0 12 ------- null}
- -t 8.1412 -s 2 -d 3 -p tcp -e 1040 -c 1 -i 19 -a 1 -x {0.0 3.0 12 ------- null}
h -t 8.1412 -s 2 -d 3 -p tcp -e 1040 -c 1 -i 19 -a 1 -x {0.0 3.0 -1 ------- null}
r -t 8.142032 -s 1 -d 2 -p tcp -e 1040 -c 1 -i 20 -a 1 -x {0.0 3.0 13 ------- null}
+ -t 8.142032 -s 2 -d 3 -p tcp -e 1040 -c 1 -i 20 -a 1 -x {0.0 3.0 13 ------- null}
- -t 8.142032 -s 2 -d 3 -p tcp -e 1040 -c 1 -i 20 -a 1 -x {0.0 3.0 13 ------- null}
h -t 8.142032 -s 2 -d 3 -p tcp -e 1040 -c 1 -i 20 -a 1 -x {0.0 3.0 -1 ------- null}
r -t 8.142864 -s 1 -d 2 -p tcp -e 1040 -c 1 -i 21 -a 1 -x {0.0 3.0 14 ------- null}
+ -t 8.142864 -s 2 -d 3 -p tcp -e 1040 -c 1 -i 21 -a 1 -x {0.0 3.0 14 ------- null}
- -t 8.142864 -s 2 -d 3 -p tcp -e 1040 -c 1 -i 21 -a 1 -x {0.0 3.0 14 ------- null}
h -t 8.142864 -s 2 -d 3 -p tcp -e 1040 -c 1 -i 21 -a 1 -x {0.0 3.0 -1 ------- null}
r -t 8.147872 -s 2 -d 3 -p tcp -e 1040 -c 1 -i 14 -a 1 -x {0.0 3.0 7 ------- null}
+ -t 8.147872 -s 3 -d 2 -p ack -e 40 -c 1 -i 22 -a 1 -x {3.0 0.0 7 ------- null}
- -t 8.147872 -s 3 -d 2 -p ack -e 40 -c 1 -i 22 -a 1 -x {3.0 0.0 7 ------- null}
h -t 8.147872 -s 3 -d 2 -p ack -e 40 -c 1 -i 22 -a 1 -x {3.0 0.0 -1 ------- null}
r -t 8.148704 -s 2 -d 3 -p tcp -e 1040 -c 1 -i 15 -a 1 -x {0.0 3.0 8 ------- null}
+ -t 8.148704 -s 3 -d 2 -p ack -e 40 -c 1 -i 23 -a 1 -x {3.0 0.0 8 ------- null}
- -t 8.148704 -s 3 -d 2 -p ack -e 40 -c 1 -i 23 -a 1 -x {3.0 0.0 8 ------- null}
h -t 8.148704 -s 3 -d 2 -p ack -e 40 -c 1 -i 23 -a 1 -x {3.0 0.0 -1 ------- null}
r -t 8.149536 -s 2 -d 3 -p tcp -e 1040 -c 1 -i 16 -a 1 -x {0.0 3.0 9 ------- null}
+ -t 8.149536 -s 3 -d 2 -p ack -e 40 -c 1 -i 24 -a 1 -x {3.0 0.0 9 ------- null}
- -t 8.149536 -s 3 -d 2 -p ack -e 40 -c 1 -i 24 -a 1 -x {3.0 0.0 9 ------- null}
h -t 8.149536 -s 3 -d 2 -p ack -e 40 -c 1 -i 24 -a 1 -x {3.0 0.0 -1 ------- null}
r -t 8.150368 -s 2 -d 3 -p tcp -e 1040 -c 1 -i 17 -a 1 -x {0.0 3.0 10 ------- null}
+ -t 8.150368 -s 3 -d 2 -p ack -e 40 -c 1 -i 25 -a 1 -x {3.0 0.0 10 ------- null}
- -t 8.150368 -s 3 -d 2 -p ack -e 40 -c 1 -i 25 -a 1 -x {3.0 0.0 10 ------- null}
h -t 8.150368 -s 3 -d 2 -p ack -e 40 -c 1 -i 25 -a 1 -x {3.0 0.0 -1 ------- null}
r -t 8.1512 -s 2 -d 3 -p tcp -e 1040 -c 1 -i 18 -a 1 -x {0.0 3.0 11 ------- null}
+ -t 8.1512 -s 3 -d 2 -p ack -e 40 -c 1 -i 26 -a 1 -x {3.0 0.0 11 ------- null}
- -t 8.1512 -s 3 -d 2 -p ack -e 40 -c 1 -i 26 -a 1 -x {3.0 0.0 11 ------- null}
h -t 8.1512 -s 3 -d 2 -p ack -e 40 -c 1 -i 26 -a 1 -x {3.0 0.0 -1 ------- null}
r -t 8.152032 -s 2 -d 3 -p tcp -e 1040 -c 1 -i 19 -a 1 -x {0.0 3.0 12 ------- null}
+ -t 8.152032 -s 3 -d 2 -p ack -e 40 -c 1 -i 27 -a 1 -x {3.0 0.0 12 ------- null}
- -t 8.152032 -s 3 -d 2 -p ack -e 40 -c 1 -i 27 -a 1 -x {3.0 0.0 12 ------- null}
h -t 8.152032 -s 3 -d 2 -p ack -e 40 -c 1 -i 27 -a 1 -x {3.0 0.0 -1 ------- null}
r -t 8.152864 -s 2 -d 3 -p tcp -e 1040 -c 1 -i 20 -a 1 -x {0.0 3.0 13 ------- null}
+ -t 8.152864 -s 3 -d 2 -p ack -e 40 -c 1 -i 28 -a 1 -x {3.0 0.0 13 ------- null}
- -t 8.152864 -s 3 -d 2 -p ack -e 40 -c 1 -i 28 -a 1 -x {3.0 0.0 13 ------- null}
h -t 8.152864 -s 3 -d 2 -p ack -e 40 -c 1 -i 28 -a 1 -x {3.0 0.0 -1 ------- null}
r -t 8.153696 -s 2 -d 3 -p tcp -e 1040 -c 1 -i 21 -a 1 -x {0.0 3.0 14 ------- null}
+ -t 8.153696 -s 3 -d 2 -p ack -e 40 -c 1 -i 29 -a 1 -x {3.0 0.0 14 ------- null}
- -t 8.153696 -s 3 -d 2 -p ack -e 40 -c 1 -i 29 -a 1 -x {3.0 0.0 14 ------- null}
h -t 8.153696 -s 3 -d 2 -p ack -e 40 -c 1 -i 29 -a 1 -x {3.0 0.0 -1 ------- null}
r -t 8.157904 -s 3 -d 2 -p ack -e 40 -c 1 -i 22 -a 1 -x {3.0 0.0 7 ------- null}
+ -t 8.157904 -s 2 -d 1 -p ack -e 40 -c 1 -i 22 -a 1 -x {3.0 0.0 7 ------- null}
- -t 8.157904 -s 2 -d 1 -p ack -e 40 -c 1 -i 22 -a 1 -x {3.0 0.0 7 ------- null}
h -t 8.157904 -s 2 -d 1 -p ack -e 40 -c 1 -i 22 -a 1 -x {3.0 0.0 -1 ------- null}
r -t 8.158736 -s 3 -d 2 -p ack -e 40 -c 1 -i 23 -a 1 -x {3.0 0.0 8 ------- null}
+ -t 8.158736 -s 2 -d 1 -p ack -e 40 -c 1 -i 23 -a 1 -x {3.0 0.0 8 ------- null}
- -t 8.158736 -s 2 -d 1 -p ack -e 40 -c 1 -i 23 -a 1 -x {3.0 0.0 8 ------- null}
h -t 8.158736 -s 2 -d 1 -p ack -e 40 -c 1 -i 23 -a 1 -x {3.0 0.0 -1 ------- null}
r -t 8.159568 -s 3 -d 2 -p ack -e 40 -c 1 -i 24 -a 1 -x {3.0 0.0 9 ------- null}
+ -t 8.159568 -s 2 -d 1 -p ack -e 40 -c 1 -i 24 -a 1 -x {3.0 0.0 9 ------- null}
- -t 8.159568 -s 2 -d 1 -p ack -e 40 -c 1 -i 24 -a 1 -x {3.0 0.0 9 ------- null}
h -t 8.159568 -s 2 -d 1 -p ack -e 40 -c 1 -i 24 -a 1 -x {3.0 0.0 -1 ------- null}
r -t 8.1604 -s 3 -d 2 -p ack -e 40 -c 1 -i 25 -a 1 -x {3.0 0.0 10 ------- null}
+ -t 8.1604 -s 2 -d 1 -p ack -e 40 -c 1 -i 25 -a 1 -x {3.0 0.0 10 ------- null}
- -t 8.1604 -s 2 -d 1 -p ack -e 40 -c 1 -i 25 -a 1 -x {3.0 0.0 10 ------- null}
h -t 8.1604 -s 2 -d 1 -p ack -e 40 -c 1 -i 25 -a 1 -x {3.0 0.0 -1 ------- null}
r -t 8.161232 -s 3 -d 2 -p ack -e 40 -c 1 -i 26 -a 1 -x {3.0 0.0 11 ------- null}
+ -t 8.161232 -s 2 -d 1 -p ack -e 40 -c 1 -i 26 -a 1 -x {3.0 0.0 11 ------- null}
- -t 8.161232 -s 2 -d 1 -p ack -e 40 -c 1 -i 26 -a 1 -x {3.0 0.0 11 ------- null}
h -t 8.161232 -s 2 -d 1 -p ack -e 40 -c 1 -i 26 -a 1 -x {3.0 0.0 -1 ------- null}
r -t 8.162064 -s 3 -d 2 -p ack -e 40 -c 1 -i 27 -a 1 -x {3.0 0.0 12 ------- null}
+ -t 8.162064 -s 2 -d 1 -p ack -e 40 -c 1 -i 27 -a 1 -x {3.0 0.0 12 ------- null}
- -t 8.162064 -s 2 -d 1 -p ack -e 40 -c 1 -i 27 -a 1 -x {3.0 0.0 12 ------- null}
h -t 8.162064 -s 2 -d 1 -p ack -e 40 -c 1 -i 27 -a 1 -x {3.0 0.0 -1 ------- null}
r -t 8.162896 -s 3 -d 2 -p ack -e 40 -c 1 -i 28 -a 1 -x {3.0 0.0 13 ------- null}
+ -t 8.162896 -s 2 -d 1 -p ack -e 40 -c 1 -i 28 -a 1 -x {3.0 0.0 13 ------- null}
- -t 8.162896 -s 2 -d 1 -p ack -e 40 -c 1 -i 28 -a 1 -x {3.0 0.0 13 ------- null}
h -t 8.162896 -s 2 -d 1 -p ack -e 40 -c 1 -i 28 -a 1 -x {3.0 0.0 -1 ------- null}
r -t 8.163728 -s 3 -d 2 -p ack -e 40 -c 1 -i 29 -a 1 -x {3.0 0.0 14 ------- null}
+ -t 8.163728 -s 2 -d 1 -p ack -e 40 -c 1 -i 29 -a 1 -x {3.0 0.0 14 ------- null}
- -t 8.163728 -s 2 -d 1 -p ack -e 40 -c 1 -i 29 -a 1 -x {3.0 0.0 14 ------- null}
h -t 8.163728 -s 2 -d 1 -p ack -e 40 -c 1 -i 29 -a 1 -x {3.0 0.0 -1 ------- null}
r -t 9.157936 -s 2 -d 1 -p ack -e 40 -c 1 -i 22 -a 1 -x {3.0 0.0 7 ------- null}
+ -t 9.157936 -s 1 -d 0 -p ack -e 40 -c 1 -i 22 -a 1 -x {3.0 0.0 7 ------- null}
- -t 9.157936 -s 1 -d 0 -p ack -e 40 -c 1 -i 22 -a 1 -x {3.0 0.0 7 ------- null}
h -t 9.157936 -s 1 -d 0 -p ack -e 40 -c 1 -i 22 -a 1 -x {3.0 0.0 -1 ------- null}
r -t 9.158768 -s 2 -d 1 -p ack -e 40 -c 1 -i 23 -a 1 -x {3.0 0.0 8 ------- null}
+ -t 9.158768 -s 1 -d 0 -p ack -e 40 -c 1 -i 23 -a 1 -x {3.0 0.0 8 ------- null}
- -t 9.158768 -s 1 -d 0 -p ack -e 40 -c 1 -i 23 -a 1 -x {3.0 0.0 8 ------- null}
h -t 9.158768 -s 1 -d 0 -p ack -e 40 -c 1 -i 23 -a 1 -x {3.0 0.0 -1 ------- null}
r -t 9.1596 -s 2 -d 1 -p ack -e 40 -c 1 -i 24 -a 1 -x {3.0 0.0 9 ------- null}
+ -t 9.1596 -s 1 -d 0 -p ack -e 40 -c 1 -i 24 -a 1 -x {3.0 0.0 9 ------- null}
- -t 9.1596 -s 1 -d 0 -p ack -e 40 -c 1 -i 24 -a 1 -x {3.0 0.0 9 ------- null}
h -t 9.1596 -s 1 -d 0 -p ack -e 40 -c 1 -i 24 -a 1 -x {3.0 0.0 -1 ------- null}
r -t 9.160432 -s 2 -d 1 -p ack -e 40 -c 1 -i 25 -a 1 -x {3.0 0.0 10 ------- null}
+ -t 9.160432 -s 1 -d 0 -p ack -e 40 -c 1 -i 25 -a 1 -x {3.0 0.0 10 ------- null}
- -t 9.160432 -s 1 -d 0 -p ack -e 40 -c 1 -i 25 -a 1 -x {3.0 0.0 10 ------- null}
h -t 9.160432 -s 1 -d 0 -p ack -e 40 -c 1 -i 25 -a 1 -x {3.0 0.0 -1 ------- null}
r -t 9.161264 -s 2 -d 1 -p ack -e 40 -c 1 -i 26 -a 1 -x {3.0 0.0 11 ------- null}
+ -t 9.161264 -s 1 -d 0 -p ack -e 40 -c 1 -i 26 -a 1 -x {3.0 0.0 11 ------- null}
- -t 9.161264 -s 1 -d 0 -p ack -e 40 -c 1 -i 26 -a 1 -x {3.0 0.0 11 ------- null}
h -t 9.161264 -s 1 -d 0 -p ack -e 40 -c 1 -i 26 -a 1 -x {3.0 0.0 -1 ------- null}
r -t 9.162096 -s 2 -d 1 -p ack -e 40 -c 1 -i 27 -a 1 -x {3.0 0.0 12 ------- null}
+ -t 9.162096 -s 1 -d 0 -p ack -e 40 -c 1 -i 27 -a 1 -x {3.0 0.0 12 ------- null}
- -t 9.162096 -s 1 -d 0 -p ack -e 40 -c 1 -i 27 -a 1 -x {3.0 0.0 12 ------- null}
h -t 9.162096 -s 1 -d 0 -p ack -e 40 -c 1 -i 27 -a 1 -x {3.0 0.0 -1 ------- null}
r -t 9.162928 -s 2 -d 1 -p ack -e 40 -c 1 -i 28 -a 1 -x {3.0 0.0 13 ------- null}
+ -t 9.162928 -s 1 -d 0 -p ack -e 40 -c 1 -i 28 -a 1 -x {3.0 0.0 13 ------- null}
- -t 9.162928 -s 1 -d 0 -p ack -e 40 -c 1 -i 28 -a 1 -x {3.0 0.0 13 ------- null}
h -t 9.162928 -s 1 -d 0 -p ack -e 40 -c 1 -i 28 -a 1 -x {3.0 0.0 -1 ------- null}
r -t 9.16376 -s 2 -d 1 -p ack -e 40 -c 1 -i 29 -a 1 -x {3.0 0.0 14 ------- null}
+ -t 9.16376 -s 1 -d 0 -p ack -e 40 -c 1 -i 29 -a 1 -x {3.0 0.0 14 ------- null}
- -t 9.16376 -s 1 -d 0 -p ack -e 40 -c 1 -i 29 -a 1 -x {3.0 0.0 14 ------- null}
h -t 9.16376 -s 1 -d 0 -p ack -e 40 -c 1 -i 29 -a 1 -x {3.0 0.0 -1 ------- null}
r -t 9.167968 -s 1 -d 0 -p ack -e 40 -c 1 -i 22 -a 1 -x {3.0 0.0 7 ------- null}
+ -t 9.167968 -s 0 -d 1 -p tcp -e 1040 -c 1 -i 30 -a 1 -x {0.0 3.0 15 ------- null}
- -t 9.167968 -s 0 -d 1 -p tcp -e 1040 -c 1 -i 30 -a 1 -x {0.0 3.0 15 ------- null}
h -t 9.167968 -s 0 -d 1 -p tcp -e 1040 -c 1 -i 30 -a 1 -x {0.0 3.0 -1 ------- null}
+ -t 9.167968 -s 0 -d 1 -p tcp -e 1040 -c 1 -i 31 -a 1 -x {0.0 3.0 16 ------- null}
r -t 9.1688 -s 1 -d 0 -p ack -e 40 -c 1 -i 23 -a 1 -x {3.0 0.0 8 ------- null}
+ -t 9.1688 -s 0 -d 1 -p tcp -e 1040 -c 1 -i 32 -a 1 -x {0.0 3.0 17 ------- null}