+ 1 0 1 tcp 40 ------- 1 0.0 3.0 0 0
- 1 0 1 tcp 40 ------- 1 0.0 3.0 0 0
r 1.010032 0 1 tcp 40 ------- 1 0.0 3.0 0 0
+ 1.010032 1 2 tcp 40 ------- 1 0.0 3.0 0 0
- 1.010032 1 2 tcp 40 ------- 1 0.0 3.0 0 0
r 2.010064 1 2 tcp 40 ------- 1 0.0 3.0 0 0
+ 2.010064 2 3 tcp 40 ------- 1 0.0 3.0 0 0
- 2.010064 2 3 tcp 40 ------- 1 0.0 3.0 0 0
r 2.020096 2 3 tcp 40 ------- 1 0.0 3.0 0 0
+ 2.020096 3 2 ack 40 ------- 1 3.0 0.0 0 1
- 2.020096 3 2 ack 40 ------- 1 3.0 0.0 0 1
r 2.030128 3 2 ack 40 ------- 1 3.0 0.0 0 1
+ 2.030128 2 1 ack 40 ------- 1 3.0 0.0 0 1
- 2.030128 2 1 ack 40 ------- 1 3.0 0.0 0 1
r 3.03016 2 1 ack 40 ------- 1 3.0 0.0 0 1
+ 3.03016 1 0 ack 40 ------- 1 3.0 0.0 0 1
- 3.03016 1 0 ack 40 ------- 1 3.0 0.0 0 1
r 3.040192 1 0 ack 40 ------- 1 3.0 0.0 0 1
+ 3.040192 0 1 tcp 1040 ------- 1 0.0 3.0 1 2
- 3.040192 0 1 tcp 1040 ------- 1 0.0 3.0 1 2
+ 3.040192 0 1 tcp 1040 ------- 1 0.0 3.0 2 3
- 3.041024 0 1 tcp 1040 ------- 1 0.0 3.0 2 3
r 3.051024 0 1 tcp 1040 ------- 1 0.0 3.0 1 2
+ 3.051024 1 2 tcp 1040 ------- 1 0.0 3.0 1 2
- 3.051024 1 2 tcp 1040 ------- 1 0.0 3.0 1 2
r 3.051856 0 1 tcp 1040 ------- 1 0.0 3.0 2 3
+ 3.051856 1 2 tcp 1040 ------- 1 0.0 3.0 2 3
- 3.051856 1 2 tcp 1040 ------- 1 0.0 3.0 2 3
r 4.051856 1 2 tcp 1040 ------- 1 0.0 3.0 1 2
+ 4.051856 2 3 tcp 1040 ------- 1 0.0 3.0 1 2
- 4.051856 2 3 tcp 1040 ------- 1 0.0 3.0 1 2
r 4.052688 1 2 tcp 1040 ------- 1 0.0 3.0 2 3
+ 4.052688 2 3 tcp 1040 ------- 1 0.0 3.0 2 3
- 4.052688 2 3 tcp 1040 ------- 1 0.0 3.0 2 3
r 4.062688 2 3 tcp 1040 ------- 1 0.0 3.0 1 2
+ 4.062688 3 2 ack 40 ------- 1 3.0 0.0 1 4
- 4.062688 3 2 ack 40 ------- 1 3.0 0.0 1 4
r 4.06352 2 3 tcp 1040 ------- 1 0.0 3.0 2 3
+ 4.06352 3 2 ack 40 ------- 1 3.0 0.0 2 5
- 4.06352 3 2 ack 40 ------- 1 3.0 0.0 2 5
r 4.07272 3 2 ack 40 ------- 1 3.0 0.0 1 4
+ 4.07272 2 1 ack 40 ------- 1 3.0 0.0 1 4
- 4.07272 2 1 ack 40 ------- 1 3.0 0.0 1 4
r 4.073552 3 2 ack 40 ------- 1 3.0 0.0 2 5
+ 4.073552 2 1 ack 40 ------- 1 3.0 0.0 2 5
- 4.073552 2 1 ack 40 ------- 1 3.0 0.0 2 5
r 5.072752 2 1 ack 40 ------- 1 3.0 0.0 1 4
+ 5.072752 1 0 ack 40 ------- 1 3.0 0.0 1 4
- 5.072752 1 0 ack 40 ------- 1 3.0 0.0 1 4
r 5.073584 2 1 ack 40 ------- 1 3.0 0.0 2 5
+ 5.073584 1 0 ack 40 ------- 1 3.0 0.0 2 5
- 5.073584 1 0 ack 40 ------- 1 3.0 0.0 2 5
r 5.082784 1 0 ack 40 ------- 1 3.0 0.0 1 4
+ 5.082784 0 1 tcp 1040 ------- 1 0.0 3.0 3 6
- 5.082784 0 1 tcp 1040 ------- 1 0.0 3.0 3 6
+ 5.082784 0 1 tcp 1040 ------- 1 0.0 3.0 4 7
- 5.083616 0 1 tcp 1040 ------- 1 0.0 3.0 4 7
r 5.083616 1 0 ack 40 ------- 1 3.0 0.0 2 5
+ 5.083616 0 1 tcp 1040 ------- 1 0.0 3.0 5 8
+ 5.083616 0 1 tcp 1040 ------- 1 0.0 3.0 6 9
- 5.084448 0 1 tcp 1040 ------- 1 0.0 3.0 5 8
- 5.08528 0 1 tcp 1040 ------- 1 0.0 3.0 6 9
r 5.093616 0 1 tcp 1040 ------- 1 0.0 3.0 3 6
+ 5.093616 1 2 tcp 1040 ------- 1 0.0 3.0 3 6
- 5.093616 1 2 tcp 1040 ------- 1 0.0 3.0 3 6
r 5.094448 0 1 tcp 1040 ------- 1 0.0 3.0 4 7
+ 5.094448 1 2 tcp 1040 ------- 1 0.0 3.0 4 7
- 5.094448 1 2 tcp 1040 ------- 1 0.0 3.0 4 7
r 5.09528 0 1 tcp 1040 ------- 1 0.0 3.0 5 8
+ 5.09528 1 2 tcp 1040 ------- 1 0.0 3.0 5 8
- 5.09528 1 2 tcp 1040 ------- 1 0.0 3.0 5 8
r 5.096112 0 1 tcp 1040 ------- 1 0.0 3.0 6 9
+ 5.096112 1 2 tcp 1040 ------- 1 0.0 3.0 6 9
- 5.096112 1 2 tcp 1040 ------- 1 0.0 3.0 6 9
r 6.094448 1 2 tcp 1040 ------- 1 0.0 3.0 3 6
+ 6.094448 2 3 tcp 1040 ------- 1 0.0 3.0 3 6
- 6.094448 2 3 tcp 1040 ------- 1 0.0 3.0 3 6
r 6.09528 1 2 tcp 1040 ------- 1 0.0 3.0 4 7
+ 6.09528 2 3 tcp 1040 ------- 1 0.0 3.0 4 7
- 6.09528 2 3 tcp 1040 ------- 1 0.0 3.0 4 7
r 6.096112 1 2 tcp 1040 ------- 1 0.0 3.0 5 8
+ 6.096112 2 3 tcp 1040 ------- 1 0.0 3.0 5 8
- 6.096112 2 3 tcp 1040 ------- 1 0.0 3.0 5 8
r 6.096944 1 2 tcp 1040 ------- 1 0.0 3.0 6 9
+ 6.096944 2 3 tcp 1040 ------- 1 0.0 3.0 6 9
- 6.096944 2 3 tcp 1040 ------- 1 0.0 3.0 6 9
r 6.10528 2 3 tcp 1040 ------- 1 0.0 3.0 3 6
+ 6.10528 3 2 ack 40 ------- 1 3.0 0.0 3 10
- 6.10528 3 2 ack 40 ------- 1 3.0 0.0 3 10
r 6.106112 2 3 tcp 1040 ------- 1 0.0 3.0 4 7
+ 6.106112 3 2 ack 40 ------- 1 3.0 0.0 4 11
- 6.106112 3 2 ack 40 ------- 1 3.0 0.0 4 11
r 6.106944 2 3 tcp 1040 ------- 1 0.0 3.0 5 8
+ 6.106944 3 2 ack 40 ------- 1 3.0 0.0 5 12
- 6.106944 3 2 ack 40 ------- 1 3.0 0.0 5 12
r 6.107776 2 3 tcp 1040 ------- 1 0.0 3.0 6 9
+ 6.107776 3 2 ack 40 ------- 1 3.0 0.0 6 13
- 6.107776 3 2 ack 40 ------- 1 3.0 0.0 6 13
r 6.115312 3 2 ack 40 ------- 1 3.0 0.0 3 10
+ 6.115312 2 1 ack 40 ------- 1 3.0 0.0 3 10
- 6.115312 2 1 ack 40 ------- 1 3.0 0.0 3 10
r 6.116144 3 2 ack 40 ------- 1 3.0 0.0 4 11
+ 6.116144 2 1 ack 40 ------- 1 3.0 0.0 4 11
- 6.116144 2 1 ack 40 ------- 1 3.0 0.0 4 11
r 6.116976 3 2 ack 40 ------- 1 3.0 0.0 5 12
+ 6.116976 2 1 ack 40 ------- 1 3.0 0.0 5 12
- 6.116976 2 1 ack 40 ------- 1 3.0 0.0 5 12
r 6.117808 3 2 ack 40 ------- 1 3.0 0.0 6 13
+ 6.117808 2 1 ack 40 ------- 1 3.0 0.0 6 13
- 6.117808 2 1 ack 40 ------- 1 3.0 0.0 6 13
r 7.115344 2 1 ack 40 ------- 1 3.0 0.0 3 10
+ 7.115344 1 0 ack 40 ------- 1 3.0 0.0 3 10
- 7.115344 1 0 ack 40 ------- 1 3.0 0.0 3 10
r 7.116176 2 1 ack 40 ------- 1 3.0 0.0 4 11
+ 7.116176 1 0 ack 40 ------- 1 3.0 0.0 4 11
- 7.116176 1 0 ack 40 ------- 1 3.0 0.0 4 11
r 7.117008 2 1 ack 40 ------- 1 3.0 0.0 5 12
+ 7.117008 1 0 ack 40 ------- 1 3.0 0.0 5 12
- 7.117008 1 0 ack 40 ------- 1 3.0 0.0 5 12
r 7.11784 2 1 ack 40 ------- 1 3.0 0.0 6 13
+ 7.11784 1 0 ack 40 ------- 1 3.0 0.0 6 13
- 7.11784 1 0 ack 40 ------- 1 3.0 0.0 6 13
r 7.125376 1 0 ack 40 ------- 1 3.0 0.0 3 10
+ 7.125376 0 1 tcp 1040 ------- 1 0.0 3.0 7 14
- 7.125376 0 1 tcp 1040 ------- 1 0.0 3.0 7 14
+ 7.125376 0 1 tcp 1040 ------- 1 0.0 3.0 8 15
r 7.126208 1 0 ack 40 ------- 1 3.0 0.0 4 11
+ 7.126208 0 1 tcp 1040 ------- 1 0.0 3.0 9 16
+ 7.126208 0 1 tcp 1040 ------- 1 0.0 3.0 10 17
- 7.126208 0 1 tcp 1040 ------- 1 0.0 3.0 8 15
r 7.12704 1 0 ack 40 ------- 1 3.0 0.0 5 12
+ 7.12704 0 1 tcp 1040 ------- 1 0.0 3.0 11 18
+ 7.12704 0 1 tcp 1040 ------- 1 0.0 3.0 12 19
- 7.12704 0 1 tcp 1040 ------- 1 0.0 3.0 9 16
r 7.127872 1 0 ack 40 ------- 1 3.0 0.0 6 13
+ 7.127872 0 1 tcp 1040 ------- 1 0.0 3.0 13 20
+ 7.127872 0 1 tcp 1040 ------- 1 0.0 3.0 14 21
- 7.127872 0 1 tcp 1040 ------- 1 0.0 3.0 10 17
- 7.128704 0 1 tcp 1040 ------- 1 0.0 3.0 11 18
- 7.129536 0 1 tcp 1040 ------- 1 0.0 3.0 12 19
- 7.130368 0 1 tcp 1040 ------- 1 0.0 3.0 13 20
- 7.1312 0 1 tcp 1040 ------- 1 0.0 3.0 14 21
r 7.136208 0 1 tcp 1040 ------- 1 0.0 3.0 7 14
+ 7.136208 1 2 tcp 1040 ------- 1 0.0 3.0 7 14
- 7.136208 1 2 tcp 1040 ------- 1 0.0 3.0 7 14
r 7.13704 0 1 tcp 1040 ------- 1 0.0 3.0 8 15
+ 7.13704 1 2 tcp 1040 ------- 1 0.0 3.0 8 15
- 7.13704 1 2 tcp 1040 ------- 1 0.0 3.0 8 15
r 7.137872 0 1 tcp 1040 ------- 1 0.0 3.0 9 16
+ 7.137872 1 2 tcp 1040 ------- 1 0.0 3.0 9 16
- 7.137872 1 2 tcp 1040 ------- 1 0.0 3.0 9 16
r 7.138704 0 1 tcp 1040 ------- 1 0.0 3.0 10 17
+ 7.138704 1 2 tcp 1040 ------- 1 0.0 3.0 10 17
- 7.138704 1 2 tcp 1040 ------- 1 0.0 3.0 10 17
r 7.139536 0 1 tcp 1040 ------- 1 0.0 3.0 11 18
+ 7.139536 1 2 tcp 1040 ------- 1 0.0 3.0 11 18
- 7.139536 1 2 tcp 1040 ------- 1 0.0 3.0 11 18
r 7.140368 0 1 tcp 1040 ------- 1 0.0 3.0 12 19
+ 7.140368 1 2 tcp 1040 ------- 1 0.0 3.0 12 19
- 7.140368 1 2 tcp 1040 ------- 1 0.0 3.0 12 19
r 7.1412 0 1 tcp 1040 ------- 1 0.0 3.0 13 20
+ 7.1412 1 2 tcp 1040 ------- 1 0.0 3.0 13 20
- 7.1412 1 2 tcp 1040 ------- 1 0.0 3.0 13 20
r 7.142032 0 1 tcp 1040 ------- 1 0.0 3.0 14 21
+ 7.142032 1 2 tcp 1040 ------- 1 0.0 3.0 14 21
- 7.142032 1 2 tcp 1040 ------- 1 0.0 3.0 14 21
r 8.13704 1 2 tcp 1040 ------- 1 0.0 3.0 7 14
+ 8.13704 2 3 tcp 1040 ------- 1 0.0 3.0 7 14
- 8.13704 2 3 tcp 1040 ------- 1 0.0 3.0 7 14
r 8.137872 1 2 tcp 1040 ------- 1 0.0 3.0 8 15
+ 8.137872 2 3 tcp 1040 ------- 1 0.0 3.0 8 15
- 8.137872 2 3 tcp 1040 ------- 1 0.0 3.0 8 15
r 8.138704 1 2 tcp 1040 ------- 1 0.0 3.0 9 16
+ 8.138704 2 3 tcp 1040 ------- 1 0.0 3.0 9 16
- 8.138704 2 3 tcp 1040 ------- 1 0.0 3.0 9 16
r 8.139536 1 2 tcp 1040 ------- 1 0.0 3.0 10 17
+ 8.139536 2 3 tcp 1040 ------- 1 0.0 3.0 10 17
- 8.139536 2 3 tcp 1040 ------- 1 0.0 3.0 10 17
r 8.140368 1 2 tcp 1040 ------- 1 0.0 3.0 11 18
+ 8.140368 2 3 tcp 1040 ------- 1 0.0 3.0 11 18
- 8.140368 2 3 tcp 1040 ------- 1 0.0 3.0 11 18
r 8.1412 1 2 tcp 1040 ------- 1 0.0 3.0 12 19
+ 8.1412 2 3 tcp 1040 ------- 1 0.0 3.0 12 19
- 8.1412 2 3 tcp 1040 ------- 1 0.0 3.0 12 19
r 8.142032 1 2 tcp 1040 ------- 1 0.0 3.0 13 20
+ 8.142032 2 3 tcp 1040 ------- 1 0.0 3.0 13 20
- 8.142032 2 3 tcp 1040 ------- 1 0.0 3.0 13 20
r 8.142864 1 2 tcp 1040 ------- 1 0.0 3.0 14 21
+ 8.142864 2 3 tcp 1040 ------- 1 0.0 3.0 14 21
- 8.142864 2 3 tcp 1040 ------- 1 0.0 3.0 14 21
r 8.147872 2 3 tcp 1040 ------- 1 0.0 3.0 7 14
+ 8.147872 3 2 ack 40 ------- 1 3.0 0.0 7 22
- 8.147872 3 2 ack 40 ------- 1 3.0 0.0 7 22
r 8.148704 2 3 tcp 1040 ------- 1 0.0 3.0 8 15
+ 8.148704 3 2 ack 40 ------- 1 3.0 0.0 8 23
- 8.148704 3 2 ack 40 ------- 1 3.0 0.0 8 23
r 8.149536 2 3 tcp 1040 ------- 1 0.0 3.0 9 16
+ 8.149536 3 2 ack 40 ------- 1 3.0 0.0 9 24
- 8.149536 3 2 ack 40 ------- 1 3.0 0.0 9 24
r 8.150368 2 3 tcp 1040 ------- 1 0.0 3.0 10 17
+ 8.150368 3 2 ack 40 ------- 1 3.0 0.0 10 25
- 8.150368 3 2 ack 40 ------- 1 3.0 0.0 10 25
r 8.1512 2 3 tcp 1040 ------- 1 0.0 3.0 11 18
+ 8.1512 3 2 ack 40 ------- 1 3.0 0.0 11 26
- 8.1512 3 2 ack 40 ------- 1 3.0 0.0 11 26
r 8.152032 2 3 tcp 1040 ------- 1 0.0 3.0 12 19
+ 8.152032 3 2 ack 40 ------- 1 3.0 0.0 12 27
- 8.152032 3 2 ack 40 ------- 1 3.0 0.0 12 27
r 8.152864 2 3 tcp 1040 ------- 1 0.0 3.0 13 20
+ 8.152864 3 2 ack 40 ------- 1 3.0 0.0 13 28
- 8.152864 3 2 ack 40 ------- 1 3.0 0.0 13 28
r 8.153696 2 3 tcp 1040 ------- 1 0.0 3.0 14 21
+ 8.153696 3 2 ack 40 ------- 1 3.0 0.0 14 29
- 8.153696 3 2 ack 40 ------- 1 3.0 0.0 14 29
r 8.157904 3 2 ack 40 ------- 1 3.0 0.0 7 22
+ 8.157904 2 1 ack 40 ------- 1 3.0 0.0 7 22
- 8.157904 2 1 ack 40 ------- 1 3.0 0.0 7 22
r 8.158736 3 2 ack 40 ------- 1 3.0 0.0 8 23
+ 8.158736 2 1 ack 40 ------- 1 3.0 0.0 8 23
- 8.158736 2 1 ack 40 ------- 1 3.0 0.0 8 23
r 8.159568 3 2 ack 40 ------- 1 3.0 0.0 9 24
+ 8.159568 2 1 ack 40 ------- 1 3.0 0.0 9 24
- 8.159568 2 1 ack 40 ------- 1 3.0 0.0 9 24
r 8.1604 3 2 ack 40 ------- 1 3.0 0.0 10 25
+ 8.1604 2 1 ack 40 ------- 1 3.0 0.0 10 25
- 8.1604 2 1 ack 40 ------- 1 3.0 0.0 10 25
r 8.161232 3 2 ack 40 ------- 1 3.0 0.0 11 26
+ 8.161232 2 1 ack 40 ------- 1 3.0 0.0 11 26
- 8.161232 2 1 ack 40 ------- 1 3.0 0.0 11 26
r 8.162064 3 2 ack 40 ------- 1 3.0 0.0 12 27
+ 8.162064 2 1 ack 40 ------- 1 3.0 0.0 12 27
- 8.162064 2 1 ack 40 ------- 1 3.0 0.0 12 27
r 8.162896 3 2 ack 40 ------- 1 3.0 0.0 13 28
+ 8.162896 2 1 ack 40 ------- 1 3.0 0.0 13 28
- 8.162896 2 1 ack 40 ------- 1 3.0 0.0 13 28
r 8.163728 3 2 ack 40 ------- 1 3.0 0.0 14 29
+ 8.163728 2 1 ack 40 ------- 1 3.0 0.0 14 29
- 8.163728 2 1 ack 40 ------- 1 3.0 0.0 14 29
r 9.157936 2 1 ack 40 ------- 1 3.0 0.0 7 22
+ 9.157936 1 0 ack 40 ------- 1 3.0 0.0 7 22
- 9.157936 1 0 ack 40 ------- 1 3.0 0.0 7 22
r 9.158768 2 1 ack 40 ------- 1 3.0 0.0 8 23
+ 9.158768 1 0 ack 40 ------- 1 3.0 0.0 8 23
- 9.158768 1 0 ack 40 ------- 1 3.0 0.0 8 23
r 9.1596 2 1 ack 40 ------- 1 3.0 0.0 9 24
+ 9.1596 1 0 ack 40 ------- 1 3.0 0.0 9 24
- 9.1596 1 0 ack 40 ------- 1 3.0 0.0 9 24
r 9.160432 2 1 ack 40 ------- 1 3.0 0.0 10 25
+ 9.160432 1 0 ack 40 ------- 1 3.0 0.0 10 25
- 9.160432 1 0 ack 40 ------- 1 3.0 0.0 10 25
r 9.161264 2 1 ack 40 ------- 1 3.0 0.0 11 26
+ 9.161264 1 0 ack 40 ------- 1 3.0 0.0 11 26
- 9.161264 1 0 ack 40 ------- 1 3.0 0.0 11 26
r 9.162096 2 1 ack 40 ------- 1 3.0 0.0 12 27
+ 9.162096 1 0 ack 40 ------- 1 3.0 0.0 12 27
- 9.162096 1 0 ack 40 ------- 1 3.0 0.0 12 27
r 9.162928 2 1 ack 40 ------- 1 3.0 0.0 13 28
+ 9.162928 1 0 ack 40 ------- 1 3.0 0.0 13 28
- 9.162928 1 0 ack 40 ------- 1 3.0 0.0 13 28
r 9.16376 2 1 ack 40 ------- 1 3.0 0.0 14 29
+ 9.16376 1 0 ack 40 ------- 1 3.0 0.0 14 29
- 9.16376 1 0 ack 40 ------- 1 3.0 0.0 14 29
r 9.167968 1 0 ack 40 ------- 1 3.0 0.0 7 22
+ 9.167968 0 1 tcp 1040 ------- 1 0.0 3.0 15 30
- 9.167968 0 1 tcp 1040 ------- 1 0.0 3.0 15 30
+ 9.167968 0 1 tcp 1040 ------- 1 0.0 3.0 16 31
r 9.1688 1 0 ack 40 ------- 1 3.0 0.0 8 23
+ 9.1688 0 1 tcp 1040 ------- 1 0.0 3.0 17 32
+ 9.1688 0 1 tcp 1040 ------- 1 0.0 3.0 18 33
- 9.1688 0 1 tcp 1040 ------- 1 0.0 3.0 16 31
r 9.169632 1 0 ack 40 ------- 1 3.0 0.0 9 24
+ 9.169632 0 1 tcp 1040 ------- 1 0.0 3.0 19 34
+ 9.169632 0 1 tcp 1040 ------- 1 0.0 3.0 20 35
- 9.169632 0 1 tcp 1040 ------- 1 0.0 3.0 17 32
r 9.170464 1 0 ack 40 ------- 1 3.0 0.0 10 25
+ 9.170464 0 1 tcp 1040 ------- 1 0.0 3.0 21 36
+ 9.170464 0 1 tcp 1040 ------- 1 0.0 3.0 22 37
- 9.170464 0 1 tcp 1040 ------- 1 0.0 3.0 18 33
r 9.171296 1 0 ack 40 ------- 1 3.0 0.0 11 26
+ 9.171296 0 1 tcp 1040 ------- 1 0.0 3.0 23 38
+ 9.171296 0 1 tcp 1040 ------- 1 0.0 3.0 24 39
- 9.171296 0 1 tcp 1040 ------- 1 0.0 3.0 19 34
r 9.172128 1 0 ack 40 ------- 1 3.0 0.0 12 27
+ 9.172128 0 1 tcp 1040 ------- 1 0.0 3.0 25 40
+ 9.172128 0 1 tcp 1040 ------- 1 0.0 3.0 26 41
- 9.172128 0 1 tcp 1040 ------- 1 0.0 3.0 20 35
r 9.17296 1 0 ack 40 ------- 1 3.0 0.0 13 28
+ 9.17296 0 1 tcp 1040 ------- 1 0.0 3.0 27 42
+ 9.17296 0 1 tcp 1040 ------- 1 0.0 3.0 28 43
- 9.17296 0 1 tcp 1040 ------- 1 0.0 3.0 21 36
r 9.173792 1 0 ack 40 ------- 1 3.0 0.0 14 29
+ 9.173792 0 1 tcp 1040 ------- 1 0.0 3.0 29 44
+ 9.173792 0 1 tcp 1040 ------- 1 0.0 3.0 30 45
- 9.173792 0 1 tcp 1040 ------- 1 0.0 3.0 22 37
- 9.174624 0 1 tcp 1040 ------- 1 0.0 3.0 23 38
- 9.175456 0 1 tcp 1040 ------- 1 0.0 3.0 24 39
- 9.176288 0 1 tcp 1040 ------- 1 0.0 3.0 25 40
- 9.17712 0 1 tcp 1040 ------- 1 0.0 3.0 26 41
- 9.177952 0 1 tcp 1040 ------- 1 0.0 3.0 27 42
- 9.178784 0 1 tcp 1040 ------- 1 0.0 3.0 28 43
r 9.1788 0 1 tcp 1040 ------- 1 0.0 3.0 15 30
+ 9.1788 1 2 tcp 1040 ------- 1 0.0 3.0 15 30
- 9.1788 1 2 tcp 1040 ------- 1 0.0 3.0 15 30
- 9.179616 0 1 tcp 1040 ------- 1 0.0 3.0 29 44
r 9.179632 0 1 tcp 1040 ------- 1 0.0 3.0 16 31
+ 9.179632 1 2 tcp 1040 ------- 1 0.0 3.0 16 31
- 9.179632 1 2 tcp 1040 ------- 1 0.0 3.0 16 31
- 9.180448 0 1 tcp 1040 ------- 1 0.0 3.0 30 45
r 9.180464 0 1 tcp 1040 ------- 1 0.0 3.0 17 32
+ 9.180464 1 2 tcp 1040 ------- 1 0.0 3.0 17 32
- 9.180464 1 2 tcp 1040 ------- 1 0.0 3.0 17 32
r 9.181296 0 1 tcp 1040 ------- 1 0.0 3.0 18 33
+ 9.181296 1 2 tcp 1040 ------- 1 0.0 3.0 18 33
- 9.181296 1 2 tcp 1040 ------- 1 0.0 3.0 18 33
r 9.182128 0 1 tcp 1040 ------- 1 0.0 3.0 19 34
+ 9.182128 1 2 tcp 1040 ------- 1 0.0 3.0 19 34
- 9.182128 1 2 tcp 1040 ------- 1 0.0 3.0 19 34
r 9.18296 0 1 tcp 1040 ------- 1 0.0 3.0 20 35
+ 9.18296 1 2 tcp 1040 ------- 1 0.0 3.0 20 35
- 9.18296 1 2 tcp 1040 ------- 1 0.0 3.0 20 35
r 9.183792 0 1 tcp 1040 ------- 1 0.0 3.0 21 36
+ 9.183792 1 2 tcp 1040 ------- 1 0.0 3.0 21 36
- 9.183792 1 2 tcp 1040 ------- 1 0.0 3.0 21 36
r 9.184624 0 1 tcp 1040 ------- 1 0.0 3.0 22 37
+ 9.184624 1 2 tcp 1040 ------- 1 0.0 3.0 22 37
- 9.184624 1 2 tcp 1040 ------- 1 0.0 3.0 22 37
r 9.185456 0 1 tcp 1040 ------- 1 0.0 3.0 23 38
+ 9.185456 1 2 tcp 1040 ------- 1 0.0 3.0 23 38
- 9.185456 1 2 tcp 1040 ------- 1 0.0 3.0 23 38
r 9.186288 0 1 tcp 1040 ------- 1 0.0 3.0 24 39
+ 9.186288 1 2 tcp 1040 ------- 1 0.0 3.0 24 39
- 9.186288 1 2 tcp 1040 ------- 1 0.0 3.0 24 39
r 9.18712 0 1 tcp 1040 ------- 1 0.0 3.0 25 40
+ 9.18712 1 2 tcp 1040 ------- 1 0.0 3.0 25 40
- 9.18712 1 2 tcp 1040 ------- 1 0.0 3.0 25 40
r 9.187952 0 1 tcp 1040 ------- 1 0.0 3.0 26 41
+ 9.187952 1 2 tcp 1040 ------- 1 0.0 3.0 26 41
- 9.187952 1 2 tcp 1040 ------- 1 0.0 3.0 26 41
r 9.188784 0 1 tcp 1040 ------- 1 0.0 3.0 27 42
+ 9.188784 1 2 tcp 1040 ------- 1 0.0 3.0 27 42
- 9.188784 1 2 tcp 1040 ------- 1 0.0 3.0 27 42
r 9.189616 0 1 tcp 1040 ------- 1 0.0 3.0 28 43
+ 9.189616 1 2 tcp 1040 ------- 1 0.0 3.0 28 43
- 9.189616 1 2 tcp 1040 ------- 1 0.0 3.0 28 43
r 9.190448 0 1 tcp 1040 ------- 1 0.0 3.0 29 44
+ 9.190448 1 2 tcp 1040 ------- 1 0.0 3.0 29 44
- 9.190448 1 2 tcp 1040 ------- 1 0.0 3.0 29 44
r 9.19128 0 1 tcp 1040 ------- 1 0.0 3.0 30 45
+ 9.19128 1 2 tcp 1040 ------- 1 0.0 3.0 30 45
- 9.19128 1 2 tcp 1040 ------- 1 0.0 3.0 30 45
r 10.179632 1 2 tcp 1040 ------- 1 0.0 3.0 15 30
+ 10.179632 2 3 tcp 1040 ------- 1 0.0 3.0 15 30
- 10.179632 2 3 tcp 1040 ------- 1 0.0 3.0 15 30
r 10.180464 1 2 tcp 1040 ------- 1 0.0 3.0 16 31
+ 10.180464 2 3 tcp 1040 ------- 1 0.0 3.0 16 31
- 10.180464 2 3 tcp 1040 ------- 1 0.0 3.0 16 31
r 10.181296 1 2 tcp 1040 ------- 1 0.0 3.0 17 32
+ 10.181296 2 3 tcp 1040 ------- 1 0.0 3.0 17 32
- 10.181296 2 3 tcp 1040 ------- 1 0.0 3.0 17 32
r 10.182128 1 2 tcp 1040 ------- 1 0.0 3.0 18 33
+ 10.182128 2 3 tcp 1040 ------- 1 0.0 3.0 18 33
- 10.182128 2 3 tcp 1040 ------- 1 0.0 3.0 18 33
r 10.18296 1 2 tcp 1040 ------- 1 0.0 3.0 19 34
+ 10.18296 2 3 tcp 1040 ------- 1 0.0 3.0 19 34
- 10.18296 2 3 tcp 1040 ------- 1 0.0 3.0 19 34
r 10.183792 1 2 tcp 1040 ------- 1 0.0 3.0 20 35
+ 10.183792 2 3 tcp 1040 ------- 1 0.0 3.0 20 35
- 10.183792 2 3 tcp 1040 ------- 1 0.0 3.0 20 35
r 10.184624 1 2 tcp 1040 ------- 1 0.0 3.0 21 36
+ 10.184624 2 3 tcp 1040 ------- 1 0.0 3.0 21 36
- 10.184624 2 3 tcp 1040 ------- 1 0.0 3.0 21 36
r 10.185456 1 2 tcp 1040 ------- 1 0.0 3.0 22 37
+ 10.185456 2 3 tcp 1040 ------- 1 0.0 3.0 22 37
- 10.185456 2 3 tcp 1040 ------- 1 0.0 3.0 22 37
r 10.186288 1 2 tcp 1040 ------- 1 0.0 3.0 23 38
+ 10.186288 2 3 tcp 1040 ------- 1 0.0 3.0 23 38
- 10.186288 2 3 tcp 1040 ------- 1 0.0 3.0 23 38
r 10.18712 1 2 tcp 1040 ------- 1 0.0 3.0 24 39
+ 10.18712 2 3 tcp 1040 ------- 1 0.0 3.0 24 39
- 10.18712 2 3 tcp 1040 ------- 1 0.0 3.0 24 39
r 10.187952 1 2 tcp 1040 ------- 1 0.0 3.0 25 40
+ 10.187952 2 3 tcp 1040 ------- 1 0.0 3.0 25 40
- 10.187952 2 3 tcp 1040 ------- 1 0.0 3.0 25 40
r 10.188784 1 2 tcp 1040 ------- 1 0.0 3.0 26 41
+ 10.188784 2 3 tcp 1040 ------- 1 0.0 3.0 26 41
- 10.188784 2 3 tcp 1040 ------- 1 0.0 3.0 26 41
r 10.189616 1 2 tcp 1040 ------- 1 0.0 3.0 27 42
+ 10.189616 2 3 tcp 1040 ------- 1 0.0 3.0 27 42
- 10.189616 2 3 tcp 1040 ------- 1 0.0 3.0 27 42
r 10.190448 1 2 tcp 1040 ------- 1 0.0 3.0 28 43
+ 10.190448 2 3 tcp 1040 ------- 1 0.0 3.0 28 43
- 10.190448 2 3 tcp 1040 ------- 1 0.0 3.0 28 43
r 10.190464 2 3 tcp 1040 ------- 1 0.0 3.0 15 30
+ 10.190464 3 2 ack 40 ------- 1 3.0 0.0 15 46
- 10.190464 3 2 ack 40 ------- 1 3.0 0.0 15 46
r 10.19128 1 2 tcp 1040 ------- 1 0.0 3.0 29 44
+ 10.19128 2 3 tcp 1040 ------- 1 0.0 3.0 29 44
- 10.19128 2 3 tcp 1040 ------- 1 0.0 3.0 29 44
r 10.191296 2 3 tcp 1040 ------- 1 0.0 3.0 16 31
+ 10.191296 3 2 ack 40 ------- 1 3.0 0.0 16 47
- 10.191296 3 2 ack 40 ------- 1 3.0 0.0 16 47
r 10.192112 1 2 tcp 1040 ------- 1 0.0 3.0 30 45
+ 10.192112 2 3 tcp 1040 ------- 1 0.0 3.0 30 45
- 10.192112 2 3 tcp 1040 ------- 1 0.0 3.0 30 45
r 10.192128 2 3 tcp 1040 ------- 1 0.0 3.0 17 32
+ 10.192128 3 2 ack 40 ------- 1 3.0 0.0 17 48
- 10.192128 3 2 ack 40 ------- 1 3.0 0.0 17 48
r 10.19296 2 3 tcp 1040 ------- 1 0.0 3.0 18 33
+ 10.19296 3 2 ack 40 ------- 1 3.0 0.0 18 49
- 10.19296 3 2 ack 40 ------- 1 3.0 0.0 18 49
r 10.193792 2 3 tcp 1040 ------- 1 0.0 3.0 19 34
+ 10.193792 3 2 ack 40 ------- 1 3.0 0.0 19 50
- 10.193792 3 2 ack 40 ------- 1 3.0 0.0 19 50
r 10.194624 2 3 tcp 1040 ------- 1 0.0 3.0 20 35
+ 10.194624 3 2 ack 40 ------- 1 3.0 0.0 20 51
- 10.194624 3 2 ack 40 ------- 1 3.0 0.0 20 51
r 10.195456 2 3 tcp 1040 ------- 1 0.0 3.0 21 36
+ 10.195456 3 2 ack 40 ------- 1 3.0 0.0 21 52
- 10.195456 3 2 ack 40 ------- 1 3.0 0.0 21 52
r 10.196288 2 3 tcp 1040 ------- 1 0.0 3.0 22 37
+ 10.196288 3 2 ack 40 ------- 1 3.0 0.0 22 53
- 10.196288 3 2 ack 40 ------- 1 3.0 0.0 22 53
r 10.19712 2 3 tcp 1040 ------- 1 0.0 3.0 23 38
+ 10.19712 3 2 ack 40 ------- 1 3.0 0.0 23 54
- 10.19712 3 2 ack 40 ------- 1 3.0 0.0 23 54
r 10.197952 2 3 tcp 1040 ------- 1 0.0 3.0 24 39
+ 10.197952 3 2 ack 40 ------- 1 3.0 0.0 24 55
- 10.197952 3 2 ack 40 ------- 1 3.0 0.0 24 55
r 10.198784 2 3 tcp 1040 ------- 1 0.0 3.0 25 40
+ 10.198784 3 2 ack 40 ------- 1 3.0 0.0 25 56
- 10.198784 3 2 ack 40 ------- 1 3.0 0.0 25 56
r 10.199616 2 3 tcp 1040 ------- 1 0.0 3.0 26 41
+ 10.199616 3 2 ack 40 ------- 1 3.0 0.0 26 57
- 10.199616 3 2 ack 40 ------- 1 3.0 0.0 26 57
r 10.200448 2 3 tcp 1040 ------- 1 0.0 3.0 27 42
+ 10.200448 3 2 ack 40 ------- 1 3.0 0.0 27 58
- 10.200448 3 2 ack 40 ------- 1 3.0 0.0 27 58
r 10.200496 3 2 ack 40 ------- 1 3.0 0.0 15 46
+ 10.200496 2 1 ack 40 ------- 1 3.0 0.0 15 46
- 10.200496 2 1 ack 40 ------- 1 3.0 0.0 15 46
r 10.20128 2 3 tcp 1040 ------- 1 0.0 3.0 28 43
+ 10.20128 3 2 ack 40 ------- 1 3.0 0.0 28 59
- 10.20128 3 2 ack 40 ------- 1 3.0 0.0 28 59
r 10.201328 3 2 ack 40 ------- 1 3.0 0.0 16 47
+ 10.201328 2 1 ack 40 ------- 1 3.0 0.0 16 47
- 10.201328 2 1 ack 40 ------- 1 3.0 0.0 16 47
r 10.202112 2 3 tcp 1040 ------- 1 0.0 3.0 29 44
+ 10.202112 3 2 ack 40 ------- 1 3.0 0.0 29 60
- 10.202112 3 2 ack 40 ------- 1 3.0 0.0 29 60
r 10.20216 3 2 ack 40 ------- 1 3.0 0.0 17 48
+ 10.20216 2 1 ack 40 ------- 1 3.0 0.0 17 48
- 10.20216 2 1 ack 40 ------- 1 3.0 0.0 17 48
r 10.202944 2 3 tcp 1040 ------- 1 0.0 3.0 30 45
+ 10.202944 3 2 ack 40 ------- 1 3.0 0.0 30 61
- 10.202944 3 2 ack 40 ------- 1 3.0 0.0 30 61
r 10.202992 3 2 ack 40 ------- 1 3.0 0.0 18 49
+ 10.202992 2 1 ack 40 ------- 1 3.0 0.0 18 49
- 10.202992 2 1 ack 40 ------- 1 3.0 0.0 18 49
r 10.203824 3 2 ack 40 ------- 1 3.0 0.0 19 50
+ 10.203824 2 1 ack 40 ------- 1 3.0 0.0 19 50
- 10.203824 2 1 ack 40 ------- 1 3.0 0.0 19 50
r 10.204656 3 2 ack 40 ------- 1 3.0 0.0 20 51
+ 10.204656 2 1 ack 40 ------- 1 3.0 0.0 20 51
- 10.204656 2 1 ack 40 ------- 1 3.0 0.0 20 51
r 10.205488 3 2 ack 40 ------- 1 3.0 0.0 21 52
+ 10.205488 2 1 ack 40 ------- 1 3.0 0.0 21 52
- 10.205488 2 1 ack 40 ------- 1 3.0 0.0 21 52
r 10.20632 3 2 ack 40 ------- 1 3.0 0.0 22 53
+ 10.20632 2 1 ack 40 ------- 1 3.0 0.0 22 53
- 10.20632 2 1 ack 40 ------- 1 3.0 0.0 22 53
r 10.207152 3 2 ack 40 ------- 1 3.0 0.0 23 54
+ 10.207152 2 1 ack 40 ------- 1 3.0 0.0 23 54
- 10.207152 2 1 ack 40 ------- 1 3.0 0.0 23 54
r 10.207984 3 2 ack 40 ------- 1 3.0 0.0 24 55
+ 10.207984 2 1 ack 40 ------- 1 3.0 0.0 24 55
- 10.207984 2 1 ack 40 ------- 1 3.0 0.0 24 55
r 10.208816 3 2 ack 40 ------- 1 3.0 0.0 25 56
+ 10.208816 2 1 ack 40 ------- 1 3.0 0.0 25 56
- 10.208816 2 1 ack 40 ------- 1 3.0 0.0 25 56
r 10.209648 3 2 ack 40 ------- 1 3.0 0.0 26 57
+ 10.209648 2 1 ack 40 ------- 1 3.0 0.0 26 57
- 10.209648 2 1 ack 40 ------- 1 3.0 0.0 26 57
r 10.21048 3 2 ack 40 ------- 1 3.0 0.0 27 58
+ 10.21048 2 1 ack 40 ------- 1 3.0 0.0 27 58
- 10.21048 2 1 ack 40 ------- 1 3.0 0.0 27 58
r 10.211312 3 2 ack 40 ------- 1 3.0 0.0 28 59
+ 10.211312 2 1 ack 40 ------- 1 3.0 0.0 28 59
- 10.211312 2 1 ack 40 ------- 1 3.0 0.0 28 59
r 10.212144 3 2 ack 40 ------- 1 3.0 0.0 29 60
+ 10.212144 2 1 ack 40 ------- 1 3.0 0.0 29 60
- 10.212144 2 1 ack 40 ------- 1 3.0 0.0 29 60
r 10.212976 3 2 ack 40 ------- 1 3.0 0.0 30 61
+ 10.212976 2 1 ack 40 ------- 1 3.0 0.0 30 61
- 10.212976 2 1 ack 40 ------- 1 3.0 0.0 30 61
r 11.200528 2 1 ack 40 ------- 1 3.0 0.0 15 46
+ 11.200528 1 0 ack 40 ------- 1 3.0 0.0 15 46
- 11.200528 1 0 ack 40 ------- 1 3.0 0.0 15 46
r 11.20136 2 1 ack 40 ------- 1 3.0 0.0 16 47
+ 11.20136 1 0 ack 40 ------- 1 3.0 0.0 16 47
- 11.20136 1 0 ack 40 ------- 1 3.0 0.0 16 47
r 11.202192 2 1 ack 40 ------- 1 3.0 0.0 17 48
+ 11.202192 1 0 ack 40 ------- 1 3.0 0.0 17 48
- 11.202192 1 0 ack 40 ------- 1 3.0 0.0 17 48
r 11.203024 2 1 ack 40 ------- 1 3.0 0.0 18 49
+ 11.203024 1 0 ack 40 ------- 1 3.0 0.0 18 49
- 11.203024 1 0 ack 40 ------- 1 3.0 0.0 18 49
r 11.203856 2 1 ack 40 ------- 1 3.0 0.0 19 50
+ 11.203856 1 0 ack 40 ------- 1 3.0 0.0 19 50
- 11.203856 1 0 ack 40 ------- 1 3.0 0.0 19 50
r 11.204688 2 1 ack 40 ------- 1 3.0 0.0 20 51
+ 11.204688 1 0 ack 40 ------- 1 3.0 0.0 20 51
- 11.204688 1 0 ack 40 ------- 1 3.0 0.0 20 51
r 11.20552 2 1 ack 40 ------- 1 3.0 0.0 21 52
+ 11.20552 1 0 ack 40 ------- 1 3.0 0.0 21 52
- 11.20552 1 0 ack 40 ------- 1 3.0 0.0 21 52
r 11.206352 2 1 ack 40 ------- 1 3.0 0.0 22 53
+ 11.206352 1 0 ack 40 ------- 1 3.0 0.0 22 53
- 11.206352 1 0 ack 40 ------- 1 3.0 0.0 22 53
r 11.207184 2 1 ack 40 ------- 1 3.0 0.0 23 54
+ 11.207184 1 0 ack 40 ------- 1 3.0 0.0 23 54
- 11.207184 1 0 ack 40 ------- 1 3.0 0.0 23 54
r 11.208016 2 1 ack 40 ------- 1 3.0 0.0 24 55
+ 11.208016 1 0 ack 40 ------- 1 3.0 0.0 24 55
- 11.208016 1 0 ack 40 ------- 1 3.0 0.0 24 55
r 11.208848 2 1 ack 40 ------- 1 3.0 0.0 25 56
+ 11.208848 1 0 ack 40 ------- 1 3.0 0.0 25 56
- 11.208848 1 0 ack 40 ------- 1 3.0 0.0 25 56
r 11.20968 2 1 ack 40 ------- 1 3.0 0.0 26 57
+ 11.20968 1 0 ack 40 ------- 1 3.0 0.0 26 57
- 11.20968 1 0 ack 40 ------- 1 3.0 0.0 26 57
r 11.210512 2 1 ack 40 ------- 1 3.0 0.0 27 58
+ 11.210512 1 0 ack 40 ------- 1 3.0 0.0 27 58
- 11.210512 1 0 ack 40 ------- 1 3.0 0.0 27 58
r 11.21056 1 0 ack 40 ------- 1 3.0 0.0 15 46
+ 11.21056 0 1 tcp 1040 ------- 1 0.0 3.0 31 62
- 11.21056 0 1 tcp 1040 ------- 1 0.0 3.0 31 62
+ 11.21056 0 1 tcp 1040 ------- 1 0.0 3.0 32 63
r 11.211344 2 1 ack 40 ------- 1 3.0 0.0 28 59
+ 11.211344 1 0 ack 40 ------- 1 3.0 0.0 28 59
- 11.211344 1 0 ack 40 ------- 1 3.0 0.0 28 59
- 11.211392 0 1 tcp 1040 ------- 1 0.0 3.0 32 63
r 11.211392 1 0 ack 40 ------- 1 3.0 0.0 16 47
+ 11.211392 0 1 tcp 1040 ------- 1 0.0 3.0 33 64
+ 11.211392 0 1 tcp 1040 ------- 1 0.0 3.0 34 65
r 11.212176 2 1 ack 40 ------- 1 3.0 0.0 29 60
+ 11.212176 1 0 ack 40 ------- 1 3.0 0.0 29 60
- 11.212176 1 0 ack 40 ------- 1 3.0 0.0 29 60
r 11.212224 1 0 ack 40 ------- 1 3.0 0.0 17 48
+ 11.212224 0 1 tcp 1040 ------- 1 0.0 3.0 35 66
+ 11.212224 0 1 tcp 1040 ------- 1 0.0 3.0 36 67
- 11.212224 0 1 tcp 1040 ------- 1 0.0 3.0 33 64
r 11.213008 2 1 ack 40 ------- 1 3.0 0.0 30 61
+ 11.213008 1 0 ack 40 ------- 1 3.0 0.0 30 61
- 11.213008 1 0 ack 40 ------- 1 3.0 0.0 30 61
- 11.213056 0 1 tcp 1040 ------- 1 0.0 3.0 34 65
r 11.213056 1 0 ack 40 ------- 1 3.0 0.0 18 49
+ 11.213056 0 1 tcp 1040 ------- 1 0.0 3.0 37 68
+ 11.213056 0 1 tcp 1040 ------- 1 0.0 3.0 38 69
r 11.213888 1 0 ack 40 ------- 1 3.0 0.0 19 50
+ 11.213888 0 1 tcp 1040 ------- 1 0.0 3.0 39 70
- 11.213888 0 1 tcp 1040 ------- 1 0.0 3.0 35 66
- 11.21472 0 1 tcp 1040 ------- 1 0.0 3.0 36 67
r 11.21472 1 0 ack 40 ------- 1 3.0 0.0 20 51
+ 11.21472 0 1 tcp 1040 ------- 1 0.0 3.0 40 71
r 11.215552 1 0 ack 40 ------- 1 3.0 0.0 21 52
+ 11.215552 0 1 tcp 1040 ------- 1 0.0 3.0 41 72
- 11.215552 0 1 tcp 1040 ------- 1 0.0 3.0 37 68
- 11.216384 0 1 tcp 1040 ------- 1 0.0 3.0 38 69
r 11.216384 1 0 ack 40 ------- 1 3.0 0.0 22 53
+ 11.216384 0 1 tcp 1040 ------- 1 0.0 3.0 42 73
r 11.217216 1 0 ack 40 ------- 1 3.0 0.0 23 54
+ 11.217216 0 1 tcp 1040 ------- 1 0.0 3.0 43 74
- 11.217216 0 1 tcp 1040 ------- 1 0.0 3.0 39 70
- 11.218048 0 1 tcp 1040 ------- 1 0.0 3.0 40 71
r 11.218048 1 0 ack 40 ------- 1 3.0 0.0 24 55
+ 11.218048 0 1 tcp 1040 ------- 1 0.0 3.0 44 75
r 11.21888 1 0 ack 40 ------- 1 3.0 0.0 25 56
+ 11.21888 0 1 tcp 1040 ------- 1 0.0 3.0 45 76
- 11.21888 0 1 tcp 1040 ------- 1 0.0 3.0 41 72
- 11.219712 0 1 tcp 1040 ------- 1 0.0 3.0 42 73
r 11.219712 1 0 ack 40 ------- 1 3.0 0.0 26 57
+ 11.219712 0 1 tcp 1040 ------- 1 0.0 3.0 46 77
r 11.220544 1 0 ack 40 ------- 1 3.0 0.0 27 58
+ 11.220544 0 1 tcp 1040 ------- 1 0.0 3.0 47 78
- 11.220544 0 1 tcp 1040 ------- 1 0.0 3.0 43 74
- 11.221376 0 1 tcp 1040 ------- 1 0.0 3.0 44 75
r 11.221376 1 0 ack 40 ------- 1 3.0 0.0 28 59
+ 11.221376 0 1 tcp 1040 ------- 1 0.0 3.0 48 79
r 11.221392 0 1 tcp 1040 ------- 1 0.0 3.0 31 62
+ 11.221392 1 2 tcp 1040 ------- 1 0.0 3.0 31 62
- 11.221392 1 2 tcp 1040 ------- 1 0.0 3.0 31 62
r 11.222208 1 0 ack 40 ------- 1 3.0 0.0 29 60
+ 11.222208 0 1 tcp 1040 ------- 1 0.0 3.0 49 80
- 11.222208 0 1 tcp 1040 ------- 1 0.0 3.0 45 76
r 11.222224 0 1 tcp 1040 ------- 1 0.0 3.0 32 63
+ 11.222224 1 2 tcp 1040 ------- 1 0.0 3.0 32 63
- 11.222224 1 2 tcp 1040 ------- 1 0.0 3.0 32 63
- 11.22304 0 1 tcp 1040 ------- 1 0.0 3.0 46 77
r 11.22304 1 0 ack 40 ------- 1 3.0 0.0 30 61
+ 11.22304 0 1 tcp 1040 ------- 1 0.0 3.0 50 81
r 11.223056 0 1 tcp 1040 ------- 1 0.0 3.0 33 64
+ 11.223056 1 2 tcp 1040 ------- 1 0.0 3.0 33 64
- 11.223056 1 2 tcp 1040 ------- 1 0.0 3.0 33 64
- 11.223872 0 1 tcp 1040 ------- 1 0.0 3.0 47 78
r 11.223888 0 1 tcp 1040 ------- 1 0.0 3.0 34 65
+ 11.223888 1 2 tcp 1040 ------- 1 0.0 3.0 34 65
- 11.223888 1 2 tcp 1040 ------- 1 0.0 3.0 34 65
- 11.224704 0 1 tcp 1040 ------- 1 0.0 3.0 48 79
r 11.22472 0 1 tcp 1040 ------- 1 0.0 3.0 35 66
+ 11.22472 1 2 tcp 1040 ------- 1 0.0 3.0 35 66
- 11.22472 1 2 tcp 1040 ------- 1 0.0 3.0 35 66
- 11.225536 0 1 tcp 1040 ------- 1 0.0 3.0 49 80
r 11.225552 0 1 tcp 1040 ------- 1 0.0 3.0 36 67
+ 11.225552 1 2 tcp 1040 ------- 1 0.0 3.0 36 67
- 11.225552 1 2 tcp 1040 ------- 1 0.0 3.0 36 67
- 11.226368 0 1 tcp 1040 ------- 1 0.0 3.0 50 81
r 11.226384 0 1 tcp 1040 ------- 1 0.0 3.0 37 68
+ 11.226384 1 2 tcp 1040 ------- 1 0.0 3.0 37 68
- 11.226384 1 2 tcp 1040 ------- 1 0.0 3.0 37 68
r 11.227216 0 1 tcp 1040 ------- 1 0.0 3.0 38 69
+ 11.227216 1 2 tcp 1040 ------- 1 0.0 3.0 38 69
- 11.227216 1 2 tcp 1040 ------- 1 0.0 3.0 38 69
r 11.228048 0 1 tcp 1040 ------- 1 0.0 3.0 39 70
+ 11.228048 1 2 tcp 1040 ------- 1 0.0 3.0 39 70
- 11.228048 1 2 tcp 1040 ------- 1 0.0 3.0 39 70
r 11.22888 0 1 tcp 1040 ------- 1 0.0 3.0 40 71
+ 11.22888 1 2 tcp 1040 ------- 1 0.0 3.0 40 71
- 11.22888 1 2 tcp 1040 ------- 1 0.0 3.0 40 71
r 11.229712 0 1 tcp 1040 ------- 1 0.0 3.0 41 72
+ 11.229712 1 2 tcp 1040 ------- 1 0.0 3.0 41 72
- 11.229712 1 2 tcp 1040 ------- 1 0.0 3.0 41 72
r 11.230544 0 1 tcp 1040 ------- 1 0.0 3.0 42 73
+ 11.230544 1 2 tcp 1040 ------- 1 0.0 3.0 42 73
- 11.230544 1 2 tcp 1040 ------- 1 0.0 3.0 42 73
r 11.231376 0 1 tcp 1040 ------- 1 0.0 3.0 43 74
+ 11.231376 1 2 tcp 1040 ------- 1 0.0 3.0 43 74
- 11.231376 1 2 tcp 1040 ------- 1 0.0 3.0 43 74
r 11.232208 0 1 tcp 1040 ------- 1 0.0 3.0 44 75
+ 11.232208 1 2 tcp 1040 ------- 1 0.0 3.0 44 75
- 11.232208 1 2 tcp 1040 ------- 1 0.0 3.0 44 75