+ 1 0 1 tcp 40 ------- 1 0.0 3.0 0 0
- 1 0 1 tcp 40 ------- 1 0.0 3.0 0 0
r 1.010032 0 1 tcp 40 ------- 1 0.0 3.0 0 0
+ 1.010032 1 2 tcp 40 ------- 1 0.0 3.0 0 0
- 1.010032 1 2 tcp 40 ------- 1 0.0 3.0 0 0
r 1.020096 1 2 tcp 40 ------- 1 0.0 3.0 0 0
+ 1.020096 2 3 tcp 40 ------- 1 0.0 3.0 0 0
- 1.020096 2 3 tcp 40 ------- 1 0.0 3.0 0 0
r 1.030416 2 3 tcp 40 ------- 1 0.0 3.0 0 0
+ 1.030416 3 2 ack 40 ------- 1 3.0 0.0 0 1
- 1.030416 3 2 ack 40 ------- 1 3.0 0.0 0 1
r 1.040736 3 2 ack 40 ------- 1 3.0 0.0 0 1
+ 1.040736 2 1 ack 40 ------- 1 3.0 0.0 0 1
- 1.040736 2 1 ack 40 ------- 1 3.0 0.0 0 1
r 1.0508 2 1 ack 40 ------- 1 3.0 0.0 0 1
+ 1.0508 1 0 ack 40 ------- 1 3.0 0.0 0 1
- 1.0508 1 0 ack 40 ------- 1 3.0 0.0 0 1
r 1.060832 1 0 ack 40 ------- 1 3.0 0.0 0 1
+ 1.060832 0 1 tcp 1040 ------- 1 0.0 3.0 1 2
- 1.060832 0 1 tcp 1040 ------- 1 0.0 3.0 1 2
+ 1.060832 0 1 tcp 1040 ------- 1 0.0 3.0 2 3
- 1.061664 0 1 tcp 1040 ------- 1 0.0 3.0 2 3
r 1.071664 0 1 tcp 1040 ------- 1 0.0 3.0 1 2
+ 1.071664 1 2 tcp 1040 ------- 1 0.0 3.0 1 2
- 1.071664 1 2 tcp 1040 ------- 1 0.0 3.0 1 2
r 1.072496 0 1 tcp 1040 ------- 1 0.0 3.0 2 3
+ 1.072496 1 2 tcp 1040 ------- 1 0.0 3.0 2 3
- 1.073328 1 2 tcp 1040 ------- 1 0.0 3.0 2 3
r 1.083328 1 2 tcp 1040 ------- 1 0.0 3.0 1 2
+ 1.083328 2 3 tcp 1040 ------- 1 0.0 3.0 1 2
- 1.083328 2 3 tcp 1040 ------- 1 0.0 3.0 1 2
r 1.084992 1 2 tcp 1040 ------- 1 0.0 3.0 2 3
+ 1.084992 2 3 tcp 1040 ------- 1 0.0 3.0 2 3
- 1.091648 2 3 tcp 1040 ------- 1 0.0 3.0 2 3
r 1.101648 2 3 tcp 1040 ------- 1 0.0 3.0 1 2
+ 1.101648 3 2 ack 40 ------- 1 3.0 0.0 1 4
- 1.101648 3 2 ack 40 ------- 1 3.0 0.0 1 4
r 1.109968 2 3 tcp 1040 ------- 1 0.0 3.0 2 3
+ 1.109968 3 2 ack 40 ------- 1 3.0 0.0 2 5
- 1.109968 3 2 ack 40 ------- 1 3.0 0.0 2 5
r 1.111968 3 2 ack 40 ------- 1 3.0 0.0 1 4
+ 1.111968 2 1 ack 40 ------- 1 3.0 0.0 1 4
- 1.111968 2 1 ack 40 ------- 1 3.0 0.0 1 4
r 1.120288 3 2 ack 40 ------- 1 3.0 0.0 2 5
+ 1.120288 2 1 ack 40 ------- 1 3.0 0.0 2 5
- 1.120288 2 1 ack 40 ------- 1 3.0 0.0 2 5
r 1.122032 2 1 ack 40 ------- 1 3.0 0.0 1 4
+ 1.122032 1 0 ack 40 ------- 1 3.0 0.0 1 4
- 1.122032 1 0 ack 40 ------- 1 3.0 0.0 1 4
r 1.130352 2 1 ack 40 ------- 1 3.0 0.0 2 5
+ 1.130352 1 0 ack 40 ------- 1 3.0 0.0 2 5
- 1.130352 1 0 ack 40 ------- 1 3.0 0.0 2 5
r 1.132064 1 0 ack 40 ------- 1 3.0 0.0 1 4
+ 1.132064 0 1 tcp 1040 ------- 1 0.0 3.0 3 6
- 1.132064 0 1 tcp 1040 ------- 1 0.0 3.0 3 6
+ 1.132064 0 1 tcp 1040 ------- 1 0.0 3.0 4 7
- 1.132896 0 1 tcp 1040 ------- 1 0.0 3.0 4 7
r 1.140384 1 0 ack 40 ------- 1 3.0 0.0 2 5
+ 1.140384 0 1 tcp 1040 ------- 1 0.0 3.0 5 8
- 1.140384 0 1 tcp 1040 ------- 1 0.0 3.0 5 8
+ 1.140384 0 1 tcp 1040 ------- 1 0.0 3.0 6 9
- 1.141216 0 1 tcp 1040 ------- 1 0.0 3.0 6 9
r 1.142896 0 1 tcp 1040 ------- 1 0.0 3.0 3 6
+ 1.142896 1 2 tcp 1040 ------- 1 0.0 3.0 3 6
- 1.142896 1 2 tcp 1040 ------- 1 0.0 3.0 3 6
r 1.143728 0 1 tcp 1040 ------- 1 0.0 3.0 4 7
+ 1.143728 1 2 tcp 1040 ------- 1 0.0 3.0 4 7
- 1.14456 1 2 tcp 1040 ------- 1 0.0 3.0 4 7
r 1.151216 0 1 tcp 1040 ------- 1 0.0 3.0 5 8
+ 1.151216 1 2 tcp 1040 ------- 1 0.0 3.0 5 8
- 1.151216 1 2 tcp 1040 ------- 1 0.0 3.0 5 8
r 1.152048 0 1 tcp 1040 ------- 1 0.0 3.0 6 9
+ 1.152048 1 2 tcp 1040 ------- 1 0.0 3.0 6 9
- 1.15288 1 2 tcp 1040 ------- 1 0.0 3.0 6 9
r 1.15456 1 2 tcp 1040 ------- 1 0.0 3.0 3 6
+ 1.15456 2 3 tcp 1040 ------- 1 0.0 3.0 3 6
- 1.15456 2 3 tcp 1040 ------- 1 0.0 3.0 3 6
r 1.156224 1 2 tcp 1040 ------- 1 0.0 3.0 4 7
+ 1.156224 2 3 tcp 1040 ------- 1 0.0 3.0 4 7
r 1.16288 1 2 tcp 1040 ------- 1 0.0 3.0 5 8
+ 1.16288 2 3 tcp 1040 ------- 1 0.0 3.0 5 8
- 1.16288 2 3 tcp 1040 ------- 1 0.0 3.0 4 7
r 1.164544 1 2 tcp 1040 ------- 1 0.0 3.0 6 9
+ 1.164544 2 3 tcp 1040 ------- 1 0.0 3.0 6 9
- 1.1712 2 3 tcp 1040 ------- 1 0.0 3.0 5 8
r 1.17288 2 3 tcp 1040 ------- 1 0.0 3.0 3 6
+ 1.17288 3 2 ack 40 ------- 1 3.0 0.0 3 10
- 1.17288 3 2 ack 40 ------- 1 3.0 0.0 3 10
- 1.17952 2 3 tcp 1040 ------- 1 0.0 3.0 6 9
r 1.1812 2 3 tcp 1040 ------- 1 0.0 3.0 4 7
+ 1.1812 3 2 ack 40 ------- 1 3.0 0.0 4 11
- 1.1812 3 2 ack 40 ------- 1 3.0 0.0 4 11
r 1.1832 3 2 ack 40 ------- 1 3.0 0.0 3 10
+ 1.1832 2 1 ack 40 ------- 1 3.0 0.0 3 10
- 1.1832 2 1 ack 40 ------- 1 3.0 0.0 3 10
r 1.18952 2 3 tcp 1040 ------- 1 0.0 3.0 5 8
+ 1.18952 3 2 ack 40 ------- 1 3.0 0.0 5 12
- 1.18952 3 2 ack 40 ------- 1 3.0 0.0 5 12
r 1.19152 3 2 ack 40 ------- 1 3.0 0.0 4 11
+ 1.19152 2 1 ack 40 ------- 1 3.0 0.0 4 11
- 1.19152 2 1 ack 40 ------- 1 3.0 0.0 4 11
r 1.193264 2 1 ack 40 ------- 1 3.0 0.0 3 10
+ 1.193264 1 0 ack 40 ------- 1 3.0 0.0 3 10
- 1.193264 1 0 ack 40 ------- 1 3.0 0.0 3 10
r 1.19784 2 3 tcp 1040 ------- 1 0.0 3.0 6 9
+ 1.19784 3 2 ack 40 ------- 1 3.0 0.0 6 13
- 1.19784 3 2 ack 40 ------- 1 3.0 0.0 6 13
r 1.19984 3 2 ack 40 ------- 1 3.0 0.0 5 12
+ 1.19984 2 1 ack 40 ------- 1 3.0 0.0 5 12
- 1.19984 2 1 ack 40 ------- 1 3.0 0.0 5 12
r 1.201584 2 1 ack 40 ------- 1 3.0 0.0 4 11
+ 1.201584 1 0 ack 40 ------- 1 3.0 0.0 4 11
- 1.201584 1 0 ack 40 ------- 1 3.0 0.0 4 11
r 1.203296 1 0 ack 40 ------- 1 3.0 0.0 3 10
+ 1.203296 0 1 tcp 1040 ------- 1 0.0 3.0 7 14
- 1.203296 0 1 tcp 1040 ------- 1 0.0 3.0 7 14
+ 1.203296 0 1 tcp 1040 ------- 1 0.0 3.0 8 15
- 1.204128 0 1 tcp 1040 ------- 1 0.0 3.0 8 15
r 1.20816 3 2 ack 40 ------- 1 3.0 0.0 6 13
+ 1.20816 2 1 ack 40 ------- 1 3.0 0.0 6 13
- 1.20816 2 1 ack 40 ------- 1 3.0 0.0 6 13
r 1.209904 2 1 ack 40 ------- 1 3.0 0.0 5 12
+ 1.209904 1 0 ack 40 ------- 1 3.0 0.0 5 12
- 1.209904 1 0 ack 40 ------- 1 3.0 0.0 5 12
r 1.211616 1 0 ack 40 ------- 1 3.0 0.0 4 11
+ 1.211616 0 1 tcp 1040 ------- 1 0.0 3.0 9 16
- 1.211616 0 1 tcp 1040 ------- 1 0.0 3.0 9 16
+ 1.211616 0 1 tcp 1040 ------- 1 0.0 3.0 10 17
- 1.212448 0 1 tcp 1040 ------- 1 0.0 3.0 10 17
r 1.214128 0 1 tcp 1040 ------- 1 0.0 3.0 7 14
+ 1.214128 1 2 tcp 1040 ------- 1 0.0 3.0 7 14
- 1.214128 1 2 tcp 1040 ------- 1 0.0 3.0 7 14
r 1.21496 0 1 tcp 1040 ------- 1 0.0 3.0 8 15
+ 1.21496 1 2 tcp 1040 ------- 1 0.0 3.0 8 15
- 1.215792 1 2 tcp 1040 ------- 1 0.0 3.0 8 15
r 1.218224 2 1 ack 40 ------- 1 3.0 0.0 6 13
+ 1.218224 1 0 ack 40 ------- 1 3.0 0.0 6 13
- 1.218224 1 0 ack 40 ------- 1 3.0 0.0 6 13
r 1.219936 1 0 ack 40 ------- 1 3.0 0.0 5 12
+ 1.219936 0 1 tcp 1040 ------- 1 0.0 3.0 11 18
- 1.219936 0 1 tcp 1040 ------- 1 0.0 3.0 11 18
+ 1.219936 0 1 tcp 1040 ------- 1 0.0 3.0 12 19
- 1.220768 0 1 tcp 1040 ------- 1 0.0 3.0 12 19
r 1.222448 0 1 tcp 1040 ------- 1 0.0 3.0 9 16
+ 1.222448 1 2 tcp 1040 ------- 1 0.0 3.0 9 16
- 1.222448 1 2 tcp 1040 ------- 1 0.0 3.0 9 16
r 1.22328 0 1 tcp 1040 ------- 1 0.0 3.0 10 17
+ 1.22328 1 2 tcp 1040 ------- 1 0.0 3.0 10 17
- 1.224112 1 2 tcp 1040 ------- 1 0.0 3.0 10 17
r 1.225792 1 2 tcp 1040 ------- 1 0.0 3.0 7 14
+ 1.225792 2 3 tcp 1040 ------- 1 0.0 3.0 7 14
- 1.225792 2 3 tcp 1040 ------- 1 0.0 3.0 7 14
r 1.227456 1 2 tcp 1040 ------- 1 0.0 3.0 8 15
+ 1.227456 2 3 tcp 1040 ------- 1 0.0 3.0 8 15
r 1.228256 1 0 ack 40 ------- 1 3.0 0.0 6 13
+ 1.228256 0 1 tcp 1040 ------- 1 0.0 3.0 13 20
- 1.228256 0 1 tcp 1040 ------- 1 0.0 3.0 13 20
+ 1.228256 0 1 tcp 1040 ------- 1 0.0 3.0 14 21
- 1.229088 0 1 tcp 1040 ------- 1 0.0 3.0 14 21
r 1.230768 0 1 tcp 1040 ------- 1 0.0 3.0 11 18
+ 1.230768 1 2 tcp 1040 ------- 1 0.0 3.0 11 18
- 1.230768 1 2 tcp 1040 ------- 1 0.0 3.0 11 18
r 1.2316 0 1 tcp 1040 ------- 1 0.0 3.0 12 19
+ 1.2316 1 2 tcp 1040 ------- 1 0.0 3.0 12 19
- 1.232432 1 2 tcp 1040 ------- 1 0.0 3.0 12 19
r 1.234112 1 2 tcp 1040 ------- 1 0.0 3.0 9 16
+ 1.234112 2 3 tcp 1040 ------- 1 0.0 3.0 9 16
- 1.234112 2 3 tcp 1040 ------- 1 0.0 3.0 8 15
r 1.235776 1 2 tcp 1040 ------- 1 0.0 3.0 10 17
+ 1.235776 2 3 tcp 1040 ------- 1 0.0 3.0 10 17
r 1.239088 0 1 tcp 1040 ------- 1 0.0 3.0 13 20
+ 1.239088 1 2 tcp 1040 ------- 1 0.0 3.0 13 20
- 1.239088 1 2 tcp 1040 ------- 1 0.0 3.0 13 20
r 1.23992 0 1 tcp 1040 ------- 1 0.0 3.0 14 21
+ 1.23992 1 2 tcp 1040 ------- 1 0.0 3.0 14 21
- 1.240752 1 2 tcp 1040 ------- 1 0.0 3.0 14 21
r 1.242432 1 2 tcp 1040 ------- 1 0.0 3.0 11 18
+ 1.242432 2 3 tcp 1040 ------- 1 0.0 3.0 11 18
- 1.242432 2 3 tcp 1040 ------- 1 0.0 3.0 9 16
r 1.244096 1 2 tcp 1040 ------- 1 0.0 3.0 12 19
+ 1.244096 2 3 tcp 1040 ------- 1 0.0 3.0 12 19
r 1.244112 2 3 tcp 1040 ------- 1 0.0 3.0 7 14
+ 1.244112 3 2 ack 40 ------- 1 3.0 0.0 7 22
- 1.244112 3 2 ack 40 ------- 1 3.0 0.0 7 22
r 1.250752 1 2 tcp 1040 ------- 1 0.0 3.0 13 20
+ 1.250752 2 3 tcp 1040 ------- 1 0.0 3.0 13 20
- 1.250752 2 3 tcp 1040 ------- 1 0.0 3.0 10 17
r 1.252416 1 2 tcp 1040 ------- 1 0.0 3.0 14 21
+ 1.252416 2 3 tcp 1040 ------- 1 0.0 3.0 14 21
r 1.252432 2 3 tcp 1040 ------- 1 0.0 3.0 8 15
+ 1.252432 3 2 ack 40 ------- 1 3.0 0.0 8 23
- 1.252432 3 2 ack 40 ------- 1 3.0 0.0 8 23
r 1.254432 3 2 ack 40 ------- 1 3.0 0.0 7 22
+ 1.254432 2 1 ack 40 ------- 1 3.0 0.0 7 22
- 1.254432 2 1 ack 40 ------- 1 3.0 0.0 7 22
- 1.259072 2 3 tcp 1040 ------- 1 0.0 3.0 11 18
r 1.260752 2 3 tcp 1040 ------- 1 0.0 3.0 9 16
+ 1.260752 3 2 ack 40 ------- 1 3.0 0.0 9 24
- 1.260752 3 2 ack 40 ------- 1 3.0 0.0 9 24
r 1.262752 3 2 ack 40 ------- 1 3.0 0.0 8 23
+ 1.262752 2 1 ack 40 ------- 1 3.0 0.0 8 23
- 1.262752 2 1 ack 40 ------- 1 3.0 0.0 8 23
r 1.264496 2 1 ack 40 ------- 1 3.0 0.0 7 22
+ 1.264496 1 0 ack 40 ------- 1 3.0 0.0 7 22
- 1.264496 1 0 ack 40 ------- 1 3.0 0.0 7 22
- 1.267392 2 3 tcp 1040 ------- 1 0.0 3.0 12 19
r 1.269072 2 3 tcp 1040 ------- 1 0.0 3.0 10 17
+ 1.269072 3 2 ack 40 ------- 1 3.0 0.0 10 25
- 1.269072 3 2 ack 40 ------- 1 3.0 0.0 10 25
r 1.271072 3 2 ack 40 ------- 1 3.0 0.0 9 24
+ 1.271072 2 1 ack 40 ------- 1 3.0 0.0 9 24
- 1.271072 2 1 ack 40 ------- 1 3.0 0.0 9 24
r 1.272816 2 1 ack 40 ------- 1 3.0 0.0 8 23
+ 1.272816 1 0 ack 40 ------- 1 3.0 0.0 8 23
- 1.272816 1 0 ack 40 ------- 1 3.0 0.0 8 23
r 1.274528 1 0 ack 40 ------- 1 3.0 0.0 7 22
+ 1.274528 0 1 tcp 1040 ------- 1 0.0 3.0 15 26
- 1.274528 0 1 tcp 1040 ------- 1 0.0 3.0 15 26
+ 1.274528 0 1 tcp 1040 ------- 1 0.0 3.0 16 27
- 1.27536 0 1 tcp 1040 ------- 1 0.0 3.0 16 27
- 1.275712 2 3 tcp 1040 ------- 1 0.0 3.0 13 20
r 1.277392 2 3 tcp 1040 ------- 1 0.0 3.0 11 18
+ 1.277392 3 2 ack 40 ------- 1 3.0 0.0 11 28
- 1.277392 3 2 ack 40 ------- 1 3.0 0.0 11 28
r 1.279392 3 2 ack 40 ------- 1 3.0 0.0 10 25
+ 1.279392 2 1 ack 40 ------- 1 3.0 0.0 10 25
- 1.279392 2 1 ack 40 ------- 1 3.0 0.0 10 25
r 1.281136 2 1 ack 40 ------- 1 3.0 0.0 9 24
+ 1.281136 1 0 ack 40 ------- 1 3.0 0.0 9 24
- 1.281136 1 0 ack 40 ------- 1 3.0 0.0 9 24
r 1.282848 1 0 ack 40 ------- 1 3.0 0.0 8 23
+ 1.282848 0 1 tcp 1040 ------- 1 0.0 3.0 17 29
- 1.282848 0 1 tcp 1040 ------- 1 0.0 3.0 17 29
+ 1.282848 0 1 tcp 1040 ------- 1 0.0 3.0 18 30
- 1.28368 0 1 tcp 1040 ------- 1 0.0 3.0 18 30
- 1.284032 2 3 tcp 1040 ------- 1 0.0 3.0 14 21
r 1.28536 0 1 tcp 1040 ------- 1 0.0 3.0 15 26
+ 1.28536 1 2 tcp 1040 ------- 1 0.0 3.0 15 26
- 1.28536 1 2 tcp 1040 ------- 1 0.0 3.0 15 26
r 1.285712 2 3 tcp 1040 ------- 1 0.0 3.0 12 19
+ 1.285712 3 2 ack 40 ------- 1 3.0 0.0 12 31
- 1.285712 3 2 ack 40 ------- 1 3.0 0.0 12 31
r 1.286192 0 1 tcp 1040 ------- 1 0.0 3.0 16 27
+ 1.286192 1 2 tcp 1040 ------- 1 0.0 3.0 16 27
- 1.287024 1 2 tcp 1040 ------- 1 0.0 3.0 16 27
r 1.287712 3 2 ack 40 ------- 1 3.0 0.0 11 28
+ 1.287712 2 1 ack 40 ------- 1 3.0 0.0 11 28
- 1.287712 2 1 ack 40 ------- 1 3.0 0.0 11 28
r 1.289456 2 1 ack 40 ------- 1 3.0 0.0 10 25
+ 1.289456 1 0 ack 40 ------- 1 3.0 0.0 10 25
- 1.289456 1 0 ack 40 ------- 1 3.0 0.0 10 25
r 1.291168 1 0 ack 40 ------- 1 3.0 0.0 9 24
+ 1.291168 0 1 tcp 1040 ------- 1 0.0 3.0 19 32
- 1.291168 0 1 tcp 1040 ------- 1 0.0 3.0 19 32
+ 1.291168 0 1 tcp 1040 ------- 1 0.0 3.0 20 33
- 1.292 0 1 tcp 1040 ------- 1 0.0 3.0 20 33
r 1.29368 0 1 tcp 1040 ------- 1 0.0 3.0 17 29
+ 1.29368 1 2 tcp 1040 ------- 1 0.0 3.0 17 29
- 1.29368 1 2 tcp 1040 ------- 1 0.0 3.0 17 29
r 1.294032 2 3 tcp 1040 ------- 1 0.0 3.0 13 20
+ 1.294032 3 2 ack 40 ------- 1 3.0 0.0 13 34
- 1.294032 3 2 ack 40 ------- 1 3.0 0.0 13 34
r 1.294512 0 1 tcp 1040 ------- 1 0.0 3.0 18 30
+ 1.294512 1 2 tcp 1040 ------- 1 0.0 3.0 18 30
- 1.295344 1 2 tcp 1040 ------- 1 0.0 3.0 18 30
r 1.296032 3 2 ack 40 ------- 1 3.0 0.0 12 31
+ 1.296032 2 1 ack 40 ------- 1 3.0 0.0 12 31
- 1.296032 2 1 ack 40 ------- 1 3.0 0.0 12 31
r 1.297024 1 2 tcp 1040 ------- 1 0.0 3.0 15 26
+ 1.297024 2 3 tcp 1040 ------- 1 0.0 3.0 15 26
- 1.297024 2 3 tcp 1040 ------- 1 0.0 3.0 15 26
r 1.297776 2 1 ack 40 ------- 1 3.0 0.0 11 28
+ 1.297776 1 0 ack 40 ------- 1 3.0 0.0 11 28
- 1.297776 1 0 ack 40 ------- 1 3.0 0.0 11 28
r 1.298688 1 2 tcp 1040 ------- 1 0.0 3.0 16 27
+ 1.298688 2 3 tcp 1040 ------- 1 0.0 3.0 16 27
r 1.299488 1 0 ack 40 ------- 1 3.0 0.0 10 25
+ 1.299488 0 1 tcp 1040 ------- 1 0.0 3.0 21 35
- 1.299488 0 1 tcp 1040 ------- 1 0.0 3.0 21 35
+ 1.299488 0 1 tcp 1040 ------- 1 0.0 3.0 22 36
- 1.30032 0 1 tcp 1040 ------- 1 0.0 3.0 22 36
r 1.302 0 1 tcp 1040 ------- 1 0.0 3.0 19 32
+ 1.302 1 2 tcp 1040 ------- 1 0.0 3.0 19 32
- 1.302 1 2 tcp 1040 ------- 1 0.0 3.0 19 32
r 1.302352 2 3 tcp 1040 ------- 1 0.0 3.0 14 21
+ 1.302352 3 2 ack 40 ------- 1 3.0 0.0 14 37
- 1.302352 3 2 ack 40 ------- 1 3.0 0.0 14 37
r 1.302832 0 1 tcp 1040 ------- 1 0.0 3.0 20 33
+ 1.302832 1 2 tcp 1040 ------- 1 0.0 3.0 20 33
- 1.303664 1 2 tcp 1040 ------- 1 0.0 3.0 20 33
r 1.304352 3 2 ack 40 ------- 1 3.0 0.0 13 34
+ 1.304352 2 1 ack 40 ------- 1 3.0 0.0 13 34
- 1.304352 2 1 ack 40 ------- 1 3.0 0.0 13 34
r 1.305344 1 2 tcp 1040 ------- 1 0.0 3.0 17 29
+ 1.305344 2 3 tcp 1040 ------- 1 0.0 3.0 17 29
- 1.305344 2 3 tcp 1040 ------- 1 0.0 3.0 16 27
r 1.306096 2 1 ack 40 ------- 1 3.0 0.0 12 31
+ 1.306096 1 0 ack 40 ------- 1 3.0 0.0 12 31
- 1.306096 1 0 ack 40 ------- 1 3.0 0.0 12 31
r 1.307008 1 2 tcp 1040 ------- 1 0.0 3.0 18 30
+ 1.307008 2 3 tcp 1040 ------- 1 0.0 3.0 18 30
r 1.307808 1 0 ack 40 ------- 1 3.0 0.0 11 28
+ 1.307808 0 1 tcp 1040 ------- 1 0.0 3.0 23 38
- 1.307808 0 1 tcp 1040 ------- 1 0.0 3.0 23 38
+ 1.307808 0 1 tcp 1040 ------- 1 0.0 3.0 24 39
- 1.30864 0 1 tcp 1040 ------- 1 0.0 3.0 24 39
r 1.31032 0 1 tcp 1040 ------- 1 0.0 3.0 21 35
+ 1.31032 1 2 tcp 1040 ------- 1 0.0 3.0 21 35
- 1.31032 1 2 tcp 1040 ------- 1 0.0 3.0 21 35
r 1.311152 0 1 tcp 1040 ------- 1 0.0 3.0 22 36
+ 1.311152 1 2 tcp 1040 ------- 1 0.0 3.0 22 36
- 1.311984 1 2 tcp 1040 ------- 1 0.0 3.0 22 36
r 1.312672 3 2 ack 40 ------- 1 3.0 0.0 14 37
+ 1.312672 2 1 ack 40 ------- 1 3.0 0.0 14 37
- 1.312672 2 1 ack 40 ------- 1 3.0 0.0 14 37
r 1.313664 1 2 tcp 1040 ------- 1 0.0 3.0 19 32
+ 1.313664 2 3 tcp 1040 ------- 1 0.0 3.0 19 32
- 1.313664 2 3 tcp 1040 ------- 1 0.0 3.0 17 29
r 1.314416 2 1 ack 40 ------- 1 3.0 0.0 13 34
+ 1.314416 1 0 ack 40 ------- 1 3.0 0.0 13 34
- 1.314416 1 0 ack 40 ------- 1 3.0 0.0 13 34
r 1.315328 1 2 tcp 1040 ------- 1 0.0 3.0 20 33
+ 1.315328 2 3 tcp 1040 ------- 1 0.0 3.0 20 33
r 1.315344 2 3 tcp 1040 ------- 1 0.0 3.0 15 26
+ 1.315344 3 2 ack 40 ------- 1 3.0 0.0 15 40
- 1.315344 3 2 ack 40 ------- 1 3.0 0.0 15 40
r 1.316128 1 0 ack 40 ------- 1 3.0 0.0 12 31
+ 1.316128 0 1 tcp 1040 ------- 1 0.0 3.0 25 41
- 1.316128 0 1 tcp 1040 ------- 1 0.0 3.0 25 41
+ 1.316128 0 1 tcp 1040 ------- 1 0.0 3.0 26 42
- 1.31696 0 1 tcp 1040 ------- 1 0.0 3.0 26 42
r 1.31864 0 1 tcp 1040 ------- 1 0.0 3.0 23 38
+ 1.31864 1 2 tcp 1040 ------- 1 0.0 3.0 23 38
- 1.31864 1 2 tcp 1040 ------- 1 0.0 3.0 23 38
r 1.319472 0 1 tcp 1040 ------- 1 0.0 3.0 24 39
+ 1.319472 1 2 tcp 1040 ------- 1 0.0 3.0 24 39
- 1.320304 1 2 tcp 1040 ------- 1 0.0 3.0 24 39
r 1.321984 1 2 tcp 1040 ------- 1 0.0 3.0 21 35
+ 1.321984 2 3 tcp 1040 ------- 1 0.0 3.0 21 35
- 1.321984 2 3 tcp 1040 ------- 1 0.0 3.0 18 30
r 1.322736 2 1 ack 40 ------- 1 3.0 0.0 14 37
+ 1.322736 1 0 ack 40 ------- 1 3.0 0.0 14 37
- 1.322736 1 0 ack 40 ------- 1 3.0 0.0 14 37
r 1.323648 1 2 tcp 1040 ------- 1 0.0 3.0 22 36
+ 1.323648 2 3 tcp 1040 ------- 1 0.0 3.0 22 36
r 1.323664 2 3 tcp 1040 ------- 1 0.0 3.0 16 27
+ 1.323664 3 2 ack 40 ------- 1 3.0 0.0 16 43
- 1.323664 3 2 ack 40 ------- 1 3.0 0.0 16 43
r 1.324448 1 0 ack 40 ------- 1 3.0 0.0 13 34
+ 1.324448 0 1 tcp 1040 ------- 1 0.0 3.0 27 44
- 1.324448 0 1 tcp 1040 ------- 1 0.0 3.0 27 44
+ 1.324448 0 1 tcp 1040 ------- 1 0.0 3.0 28 45
- 1.32528 0 1 tcp 1040 ------- 1 0.0 3.0 28 45
r 1.325664 3 2 ack 40 ------- 1 3.0 0.0 15 40
+ 1.325664 2 1 ack 40 ------- 1 3.0 0.0 15 40
- 1.325664 2 1 ack 40 ------- 1 3.0 0.0 15 40
r 1.32696 0 1 tcp 1040 ------- 1 0.0 3.0 25 41
+ 1.32696 1 2 tcp 1040 ------- 1 0.0 3.0 25 41
- 1.32696 1 2 tcp 1040 ------- 1 0.0 3.0 25 41
r 1.327792 0 1 tcp 1040 ------- 1 0.0 3.0 26 42
+ 1.327792 1 2 tcp 1040 ------- 1 0.0 3.0 26 42
- 1.328624 1 2 tcp 1040 ------- 1 0.0 3.0 26 42
r 1.330304 1 2 tcp 1040 ------- 1 0.0 3.0 23 38
+ 1.330304 2 3 tcp 1040 ------- 1 0.0 3.0 23 38
- 1.330304 2 3 tcp 1040 ------- 1 0.0 3.0 19 32
r 1.331968 1 2 tcp 1040 ------- 1 0.0 3.0 24 39
+ 1.331968 2 3 tcp 1040 ------- 1 0.0 3.0 24 39
r 1.331984 2 3 tcp 1040 ------- 1 0.0 3.0 17 29
+ 1.331984 3 2 ack 40 ------- 1 3.0 0.0 17 46
- 1.331984 3 2 ack 40 ------- 1 3.0 0.0 17 46
r 1.332768 1 0 ack 40 ------- 1 3.0 0.0 14 37
+ 1.332768 0 1 tcp 1040 ------- 1 0.0 3.0 29 47
- 1.332768 0 1 tcp 1040 ------- 1 0.0 3.0 29 47
+ 1.332768 0 1 tcp 1040 ------- 1 0.0 3.0 30 48
- 1.3336 0 1 tcp 1040 ------- 1 0.0 3.0 30 48
r 1.333984 3 2 ack 40 ------- 1 3.0 0.0 16 43
+ 1.333984 2 1 ack 40 ------- 1 3.0 0.0 16 43
- 1.333984 2 1 ack 40 ------- 1 3.0 0.0 16 43
r 1.33528 0 1 tcp 1040 ------- 1 0.0 3.0 27 44
+ 1.33528 1 2 tcp 1040 ------- 1 0.0 3.0 27 44
- 1.33528 1 2 tcp 1040 ------- 1 0.0 3.0 27 44
r 1.335728 2 1 ack 40 ------- 1 3.0 0.0 15 40
+ 1.335728 1 0 ack 40 ------- 1 3.0 0.0 15 40
- 1.335728 1 0 ack 40 ------- 1 3.0 0.0 15 40
r 1.336112 0 1 tcp 1040 ------- 1 0.0 3.0 28 45
+ 1.336112 1 2 tcp 1040 ------- 1 0.0 3.0 28 45
- 1.336944 1 2 tcp 1040 ------- 1 0.0 3.0 28 45
r 1.338624 1 2 tcp 1040 ------- 1 0.0 3.0 25 41
+ 1.338624 2 3 tcp 1040 ------- 1 0.0 3.0 25 41
- 1.338624 2 3 tcp 1040 ------- 1 0.0 3.0 20 33
r 1.340288 1 2 tcp 1040 ------- 1 0.0 3.0 26 42
+ 1.340288 2 3 tcp 1040 ------- 1 0.0 3.0 26 42
r 1.340304 2 3 tcp 1040 ------- 1 0.0 3.0 18 30
+ 1.340304 3 2 ack 40 ------- 1 3.0 0.0 18 49
- 1.340304 3 2 ack 40 ------- 1 3.0 0.0 18 49
r 1.342304 3 2 ack 40 ------- 1 3.0 0.0 17 46
+ 1.342304 2 1 ack 40 ------- 1 3.0 0.0 17 46
- 1.342304 2 1 ack 40 ------- 1 3.0 0.0 17 46
r 1.3436 0 1 tcp 1040 ------- 1 0.0 3.0 29 47
+ 1.3436 1 2 tcp 1040 ------- 1 0.0 3.0 29 47
- 1.3436 1 2 tcp 1040 ------- 1 0.0 3.0 29 47
r 1.344048 2 1 ack 40 ------- 1 3.0 0.0 16 43
+ 1.344048 1 0 ack 40 ------- 1 3.0 0.0 16 43
- 1.344048 1 0 ack 40 ------- 1 3.0 0.0 16 43
r 1.344432 0 1 tcp 1040 ------- 1 0.0 3.0 30 48
+ 1.344432 1 2 tcp 1040 ------- 1 0.0 3.0 30 48
- 1.345264 1 2 tcp 1040 ------- 1 0.0 3.0 30 48
r 1.34576 1 0 ack 40 ------- 1 3.0 0.0 15 40
+ 1.34576 0 1 tcp 1040 ------- 1 0.0 3.0 31 50
- 1.34576 0 1 tcp 1040 ------- 1 0.0 3.0 31 50
+ 1.34576 0 1 tcp 1040 ------- 1 0.0 3.0 32 51
- 1.346592 0 1 tcp 1040 ------- 1 0.0 3.0 32 51
r 1.346944 1 2 tcp 1040 ------- 1 0.0 3.0 27 44
+ 1.346944 2 3 tcp 1040 ------- 1 0.0 3.0 27 44
- 1.346944 2 3 tcp 1040 ------- 1 0.0 3.0 21 35
r 1.348608 1 2 tcp 1040 ------- 1 0.0 3.0 28 45
+ 1.348608 2 3 tcp 1040 ------- 1 0.0 3.0 28 45
r 1.348624 2 3 tcp 1040 ------- 1 0.0 3.0 19 32
+ 1.348624 3 2 ack 40 ------- 1 3.0 0.0 19 52
- 1.348624 3 2 ack 40 ------- 1 3.0 0.0 19 52
r 1.350624 3 2 ack 40 ------- 1 3.0 0.0 18 49
+ 1.350624 2 1 ack 40 ------- 1 3.0 0.0 18 49
- 1.350624 2 1 ack 40 ------- 1 3.0 0.0 18 49
r 1.352368 2 1 ack 40 ------- 1 3.0 0.0 17 46
+ 1.352368 1 0 ack 40 ------- 1 3.0 0.0 17 46
- 1.352368 1 0 ack 40 ------- 1 3.0 0.0 17 46
r 1.35408 1 0 ack 40 ------- 1 3.0 0.0 16 43
+ 1.35408 0 1 tcp 1040 ------- 1 0.0 3.0 33 53
- 1.35408 0 1 tcp 1040 ------- 1 0.0 3.0 33 53
+ 1.35408 0 1 tcp 1040 ------- 1 0.0 3.0 34 54
- 1.354912 0 1 tcp 1040 ------- 1 0.0 3.0 34 54
r 1.355264 1 2 tcp 1040 ------- 1 0.0 3.0 29 47
+ 1.355264 2 3 tcp 1040 ------- 1 0.0 3.0 29 47
- 1.355264 2 3 tcp 1040 ------- 1 0.0 3.0 22 36
r 1.356592 0 1 tcp 1040 ------- 1 0.0 3.0 31 50
+ 1.356592 1 2 tcp 1040 ------- 1 0.0 3.0 31 50
- 1.356592 1 2 tcp 1040 ------- 1 0.0 3.0 31 50
r 1.356928 1 2 tcp 1040 ------- 1 0.0 3.0 30 48
+ 1.356928 2 3 tcp 1040 ------- 1 0.0 3.0 30 48
r 1.356944 2 3 tcp 1040 ------- 1 0.0 3.0 20 33
+ 1.356944 3 2 ack 40 ------- 1 3.0 0.0 20 55
- 1.356944 3 2 ack 40 ------- 1 3.0 0.0 20 55
r 1.357424 0 1 tcp 1040 ------- 1 0.0 3.0 32 51
+ 1.357424 1 2 tcp 1040 ------- 1 0.0 3.0 32 51
- 1.358256 1 2 tcp 1040 ------- 1 0.0 3.0 32 51
r 1.358944 3 2 ack 40 ------- 1 3.0 0.0 19 52
+ 1.358944 2 1 ack 40 ------- 1 3.0 0.0 19 52
- 1.358944 2 1 ack 40 ------- 1 3.0 0.0 19 52
r 1.360688 2 1 ack 40 ------- 1 3.0 0.0 18 49
+ 1.360688 1 0 ack 40 ------- 1 3.0 0.0 18 49
- 1.360688 1 0 ack 40 ------- 1 3.0 0.0 18 49
r 1.3624 1 0 ack 40 ------- 1 3.0 0.0 17 46
+ 1.3624 0 1 tcp 1040 ------- 1 0.0 3.0 35 56
- 1.3624 0 1 tcp 1040 ------- 1 0.0 3.0 35 56
+ 1.3624 0 1 tcp 1040 ------- 1 0.0 3.0 36 57
- 1.363232 0 1 tcp 1040 ------- 1 0.0 3.0 36 57
- 1.363584 2 3 tcp 1040 ------- 1 0.0 3.0 23 38
r 1.364912 0 1 tcp 1040 ------- 1 0.0 3.0 33 53
+ 1.364912 1 2 tcp 1040 ------- 1 0.0 3.0 33 53
- 1.364912 1 2 tcp 1040 ------- 1 0.0 3.0 33 53
r 1.365264 2 3 tcp 1040 ------- 1 0.0 3.0 21 35
+ 1.365264 3 2 ack 40 ------- 1 3.0 0.0 21 58
- 1.365264 3 2 ack 40 ------- 1 3.0 0.0 21 58
r 1.365744 0 1 tcp 1040 ------- 1 0.0 3.0 34 54
+ 1.365744 1 2 tcp 1040 ------- 1 0.0 3.0 34 54
- 1.366576 1 2 tcp 1040 ------- 1 0.0 3.0 34 54
r 1.367264 3 2 ack 40 ------- 1 3.0 0.0 20 55
+ 1.367264 2 1 ack 40 ------- 1 3.0 0.0 20 55
- 1.367264 2 1 ack 40 ------- 1 3.0 0.0 20 55
r 1.368256 1 2 tcp 1040 ------- 1 0.0 3.0 31 50
+ 1.368256 2 3 tcp 1040 ------- 1 0.0 3.0 31 50
r 1.369008 2 1 ack 40 ------- 1 3.0 0.0 19 52
+ 1.369008 1 0 ack 40 ------- 1 3.0 0.0 19 52
- 1.369008 1 0 ack 40 ------- 1 3.0 0.0 19 52
r 1.36992 1 2 tcp 1040 ------- 1 0.0 3.0 32 51
+ 1.36992 2 3 tcp 1040 ------- 1 0.0 3.0 32 51
r 1.37072 1 0 ack 40 ------- 1 3.0 0.0 18 49
+ 1.37072 0 1 tcp 1040 ------- 1 0.0 3.0 37 59
- 1.37072 0 1 tcp 1040 ------- 1 0.0 3.0 37 59
+ 1.37072 0 1 tcp 1040 ------- 1 0.0 3.0 38 60
- 1.371552 0 1 tcp 1040 ------- 1 0.0 3.0 38 60
- 1.371904 2 3 tcp 1040 ------- 1 0.0 3.0 24 39
r 1.373232 0 1 tcp 1040 ------- 1 0.0 3.0 35 56
+ 1.373232 1 2 tcp 1040 ------- 1 0.0 3.0 35 56
- 1.373232 1 2 tcp 1040 ------- 1 0.0 3.0 35 56
r 1.373584 2 3 tcp 1040 ------- 1 0.0 3.0 22 36
+ 1.373584 3 2 ack 40 ------- 1 3.0 0.0 22 61
- 1.373584 3 2 ack 40 ------- 1 3.0 0.0 22 61
r 1.374064 0 1 tcp 1040 ------- 1 0.0 3.0 36 57
+ 1.374064 1 2 tcp 1040 ------- 1 0.0 3.0 36 57
- 1.374896 1 2 tcp 1040 ------- 1 0.0 3.0 36 57
r 1.375584 3 2 ack 40 ------- 1 3.0 0.0 21 58
+ 1.375584 2 1 ack 40 ------- 1 3.0 0.0 21 58
- 1.375584 2 1 ack 40 ------- 1 3.0 0.0 21 58
r 1.376576 1 2 tcp 1040 ------- 1 0.0 3.0 33 53
+ 1.376576 2 3 tcp 1040 ------- 1 0.0 3.0 33 53
r 1.377328 2 1 ack 40 ------- 1 3.0 0.0 20 55
+ 1.377328 1 0 ack 40 ------- 1 3.0 0.0 20 55
- 1.377328 1 0 ack 40 ------- 1 3.0 0.0 20 55
r 1.37824 1 2 tcp 1040 ------- 1 0.0 3.0 34 54
+ 1.37824 2 3 tcp 1040 ------- 1 0.0 3.0 34 54
r 1.37904 1 0 ack 40 ------- 1 3.0 0.0 19 52
+ 1.37904 0 1 tcp 1040 ------- 1 0.0 3.0 39 62
- 1.37904 0 1 tcp 1040 ------- 1 0.0 3.0 39 62
- 1.380224 2 3 tcp 1040 ------- 1 0.0 3.0 25 41
r 1.381552 0 1 tcp 1040 ------- 1 0.0 3.0 37 59
+ 1.381552 1 2 tcp 1040 ------- 1 0.0 3.0 37 59
- 1.381552 1 2 tcp 1040 ------- 1 0.0 3.0 37 59
r 1.381904 2 3 tcp 1040 ------- 1 0.0 3.0 23 38
+ 1.381904 3 2 ack 40 ------- 1 3.0 0.0 23 63
- 1.381904 3 2 ack 40 ------- 1 3.0 0.0 23 63
r 1.382384 0 1 tcp 1040 ------- 1 0.0 3.0 38 60
+ 1.382384 1 2 tcp 1040 ------- 1 0.0 3.0 38 60
- 1.383216 1 2 tcp 1040 ------- 1 0.0 3.0 38 60
r 1.383904 3 2 ack 40 ------- 1 3.0 0.0 22 61
+ 1.383904 2 1 ack 40 ------- 1 3.0 0.0 22 61
- 1.383904 2 1 ack 40 ------- 1 3.0 0.0 22 61
r 1.384896 1 2 tcp 1040 ------- 1 0.0 3.0 35 56
+ 1.384896 2 3 tcp 1040 ------- 1 0.0 3.0 35 56
r 1.385648 2 1 ack 40 ------- 1 3.0 0.0 21 58
+ 1.385648 1 0 ack 40 ------- 1 3.0 0.0 21 58
- 1.385648 1 0 ack 40 ------- 1 3.0 0.0 21 58
r 1.38656 1 2 tcp 1040 ------- 1 0.0 3.0 36 57
+ 1.38656 2 3 tcp 1040 ------- 1 0.0 3.0 36 57
r 1.38736 1 0 ack 40 ------- 1 3.0 0.0 20 55
+ 1.38736 0 1 tcp 1040 ------- 1 0.0 3.0 40 64
- 1.38736 0 1 tcp 1040 ------- 1 0.0 3.0 40 64
- 1.388544 2 3 tcp 1040 ------- 1 0.0 3.0 26 42
r 1.389872 0 1 tcp 1040 ------- 1 0.0 3.0 39 62
+ 1.389872 1 2 tcp 1040 ------- 1 0.0 3.0 39 62
- 1.389872 1 2 tcp 1040 ------- 1 0.0 3.0 39 62
r 1.390224 2 3 tcp 1040 ------- 1 0.0 3.0 24 39
+ 1.390224 3 2 ack 40 ------- 1 3.0 0.0 24 65
- 1.390224 3 2 ack 40 ------- 1 3.0 0.0 24 65
r 1.392224 3 2 ack 40 ------- 1 3.0 0.0 23 63
+ 1.392224 2 1 ack 40 ------- 1 3.0 0.0 23 63
- 1.392224 2 1 ack 40 ------- 1 3.0 0.0 23 63
r 1.393216 1 2 tcp 1040 ------- 1 0.0 3.0 37 59
+ 1.393216 2 3 tcp 1040 ------- 1 0.0 3.0 37 59
r 1.393968 2 1 ack 40 ------- 1 3.0 0.0 22 61
+ 1.393968 1 0 ack 40 ------- 1 3.0 0.0 22 61
- 1.393968 1 0 ack 40 ------- 1 3.0 0.0 22 61
r 1.39488 1 2 tcp 1040 ------- 1 0.0 3.0 38 60
+ 1.39488 2 3 tcp 1040 ------- 1 0.0 3.0 38 60
r 1.39568 1 0 ack 40 ------- 1 3.0 0.0 21 58
+ 1.39568 0 1 tcp 1040 ------- 1 0.0 3.0 41 66
- 1.39568 0 1 tcp 1040 ------- 1 0.0 3.0 41 66
- 1.396864 2 3 tcp 1040 ------- 1 0.0 3.0 27 44
r 1.398192 0 1 tcp 1040 ------- 1 0.0 3.0 40 64
+ 1.398192 1 2 tcp 1040 ------- 1 0.0 3.0 40 64
- 1.398192 1 2 tcp 1040 ------- 1 0.0 3.0 40 64
r 1.398544 2 3 tcp 1040 ------- 1 0.0 3.0 25 41
+ 1.398544 3 2 ack 40 ------- 1 3.0 0.0 25 67
- 1.398544 3 2 ack 40 ------- 1 3.0 0.0 25 67
r 1.400544 3 2 ack 40 ------- 1 3.0 0.0 24 65
+ 1.400544 2 1 ack 40 ------- 1 3.0 0.0 24 65
- 1.400544 2 1 ack 40 ------- 1 3.0 0.0 24 65
r 1.401536 1 2 tcp 1040 ------- 1 0.0 3.0 39 62
+ 1.401536 2 3 tcp 1040 ------- 1 0.0 3.0 39 62
r 1.402288 2 1 ack 40 ------- 1 3.0 0.0 23 63
+ 1.402288 1 0 ack 40 ------- 1 3.0 0.0 23 63
- 1.402288 1 0 ack 40 ------- 1 3.0 0.0 23 63
r 1.404 1 0 ack 40 ------- 1 3.0 0.0 22 61
+ 1.404 0 1 tcp 1040 ------- 1 0.0 3.0 42 68
- 1.404 0 1 tcp 1040 ------- 1 0.0 3.0 42 68
- 1.405184 2 3 tcp 1040 ------- 1 0.0 3.0 28 45
r 1.406512 0 1 tcp 1040 ------- 1 0.0 3.0 41 66
+ 1.406512 1 2 tcp 1040 ------- 1 0.0 3.0 41 66
- 1.406512 1 2 tcp 1040 ------- 1 0.0 3.0 41 66
r 1.406864 2 3 tcp 1040 ------- 1 0.0 3.0 26 42
+ 1.406864 3 2 ack 40 ------- 1 3.0 0.0 26 69
- 1.406864 3 2 ack 40 ------- 1 3.0 0.0 26 69
r 1.408864 3 2 ack 40 ------- 1 3.0 0.0 25 67
+ 1.408864 2 1 ack 40 ------- 1 3.0 0.0 25 67
- 1.408864 2 1 ack 40 ------- 1 3.0 0.0 25 67
r 1.409856 1 2 tcp 1040 ------- 1 0.0 3.0 40 64
+ 1.409856 2 3 tcp 1040 ------- 1 0.0 3.0 40 64
r 1.410608 2 1 ack 40 ------- 1 3.0 0.0 24 65
+ 1.410608 1 0 ack 40 ------- 1 3.0 0.0 24 65
- 1.410608 1 0 ack 40 ------- 1 3.0 0.0 24 65
r 1.41232 1 0 ack 40 ------- 1 3.0 0.0 23 63
+ 1.41232 0 1 tcp 1040 ------- 1 0.0 3.0 43 70
- 1.41232 0 1 tcp 1040 ------- 1 0.0 3.0 43 70
- 1.413504 2 3 tcp 1040 ------- 1 0.0 3.0 29 47
r 1.414832 0 1 tcp 1040 ------- 1 0.0 3.0 42 68
+ 1.414832 1 2 tcp 1040 ------- 1 0.0 3.0 42 68
- 1.414832 1 2 tcp 1040 ------- 1 0.0 3.0 42 68
r 1.415184 2 3 tcp 1040 ------- 1 0.0 3.0 27 44
+ 1.415184 3 2 ack 40 ------- 1 3.0 0.0 27 71
- 1.415184 3 2 ack 40 ------- 1 3.0 0.0 27 71
r 1.417184 3 2 ack 40 ------- 1 3.0 0.0 26 69
+ 1.417184 2 1 ack 40 ------- 1 3.0 0.0 26 69
- 1.417184 2 1 ack 40 ------- 1 3.0 0.0 26 69
r 1.418176 1 2 tcp 1040 ------- 1 0.0 3.0 41 66
+ 1.418176 2 3 tcp 1040 ------- 1 0.0 3.0 41 66
r 1.418928 2 1 ack 40 ------- 1 3.0 0.0 25 67
+ 1.418928 1 0 ack 40 ------- 1 3.0 0.0 25 67
- 1.418928 1 0 ack 40 ------- 1 3.0 0.0 25 67
r 1.42064 1 0 ack 40 ------- 1 3.0 0.0 24 65
+ 1.42064 0 1 tcp 1040 ------- 1 0.0 3.0 44 72
- 1.42064 0 1 tcp 1040 ------- 1 0.0 3.0 44 72
- 1.421824 2 3 tcp 1040 ------- 1 0.0 3.0 30 48
r 1.423152 0 1 tcp 1040 ------- 1 0.0 3.0 43 70
+ 1.423152 1 2 tcp 1040 ------- 1 0.0 3.0 43 70
- 1.423152 1 2 tcp 1040 ------- 1 0.0 3.0 43 70
r 1.423504 2 3 tcp 1040 ------- 1 0.0 3.0 28 45
+ 1.423504 3 2 ack 40 ------- 1 3.0 0.0 28 73
- 1.423504 3 2 ack 40 ------- 1 3.0 0.0 28 73
r 1.425504 3 2 ack 40 ------- 1 3.0 0.0 27 71
+ 1.425504 2 1 ack 40 ------- 1 3.0 0.0 27 71
- 1.425504 2 1 ack 40 ------- 1 3.0 0.0 27 71
r 1.426496 1 2 tcp 1040 ------- 1 0.0 3.0 42 68
+ 1.426496 2 3 tcp 1040 ------- 1 0.0 3.0 42 68
r 1.427248 2 1 ack 40 ------- 1 3.0 0.0 26 69
+ 1.427248 1 0 ack 40 ------- 1 3.0 0.0 26 69
- 1.427248 1 0 ack 40 ------- 1 3.0 0.0 26 69
r 1.42896 1 0 ack 40 ------- 1 3.0 0.0 25 67
+ 1.42896 0 1 tcp 1040 ------- 1 0.0 3.0 45 74
- 1.42896 0 1 tcp 1040 ------- 1 0.0 3.0 45 74
- 1.430144 2 3 tcp 1040 ------- 1 0.0 3.0 31 50
r 1.431472 0 1 tcp 1040 ------- 1 0.0 3.0 44 72
+ 1.431472 1 2 tcp 1040 ------- 1 0.0 3.0 44 72
- 1.431472 1 2 tcp 1040 ------- 1 0.0 3.0 44 72
r 1.431824 2 3 tcp 1040 ------- 1 0.0 3.0 29 47
+ 1.431824 3 2 ack 40 ------- 1 3.0 0.0 29 75
- 1.431824 3 2 ack 40 ------- 1 3.0 0.0 29 75
r 1.433824 3 2 ack 40 ------- 1 3.0 0.0 28 73
+ 1.433824 2 1 ack 40 ------- 1 3.0 0.0 28 73
- 1.433824 2 1 ack 40 ------- 1 3.0 0.0 28 73
r 1.434816 1 2 tcp 1040 ------- 1 0.0 3.0 43 70
+ 1.434816 2 3 tcp 1040 ------- 1 0.0 3.0 43 70
r 1.435568 2 1 ack 40 ------- 1 3.0 0.0 27 71
+ 1.435568 1 0 ack 40 ------- 1 3.0 0.0 27 71
- 1.435568 1 0 ack 40 ------- 1 3.0 0.0 27 71
r 1.43728 1 0 ack 40 ------- 1 3.0 0.0 26 69
+ 1.43728 0 1 tcp 1040 ------- 1 0.0 3.0 46 76
- 1.43728 0 1 tcp 1040 ------- 1 0.0 3.0 46 76
- 1.438464 2 3 tcp 1040 ------- 1 0.0 3.0 32 51
r 1.439792 0 1 tcp 1040 ------- 1 0.0 3.0 45 74
+ 1.439792 1 2 tcp 1040 ------- 1 0.0 3.0 45 74
- 1.439792 1 2 tcp 1040 ------- 1 0.0 3.0 45 74
r 1.440144 2 3 tcp 1040 ------- 1 0.0 3.0 30 48
+ 1.440144 3 2 ack 40 ------- 1 3.0 0.0 30 77
- 1.440144 3 2 ack 40 ------- 1 3.0 0.0 30 77
r 1.442144 3 2 ack 40 ------- 1 3.0 0.0 29 75