+ 15.012336 1 0 ack 40 ------- 1 3.0 0.0 4396 8807
- 15.012336 1 0 ack 40 ------- 1 3.0 0.0 4396 8807
r 15.01312 3 2 ack 40 ------- 1 3.0 0.0 4409 8820
+ 15.01312 2 1 ack 40 ------- 1 3.0 0.0 4409 8820
- 15.01312 2 1 ack 40 ------- 1 3.0 0.0 4409 8820
r 15.013168 2 1 ack 40 ------- 1 3.0 0.0 4397 8808
+ 15.013168 1 0 ack 40 ------- 1 3.0 0.0 4397 8808
- 15.013168 1 0 ack 40 ------- 1 3.0 0.0 4397 8808
r 15.013952 3 2 ack 40 ------- 1 3.0 0.0 4410 8821
+ 15.013952 2 1 ack 40 ------- 1 3.0 0.0 4410 8821
- 15.013952 2 1 ack 40 ------- 1 3.0 0.0 4410 8821
r 15.014 2 1 ack 40 ------- 1 3.0 0.0 4398 8809
+ 15.014 1 0 ack 40 ------- 1 3.0 0.0 4398 8809
- 15.014 1 0 ack 40 ------- 1 3.0 0.0 4398 8809
r 15.014832 2 1 ack 40 ------- 1 3.0 0.0 4399 8810
+ 15.014832 1 0 ack 40 ------- 1 3.0 0.0 4399 8810
- 15.014832 1 0 ack 40 ------- 1 3.0 0.0 4399 8810
r 15.015664 2 1 ack 40 ------- 1 3.0 0.0 4400 8811
+ 15.015664 1 0 ack 40 ------- 1 3.0 0.0 4400 8811
- 15.015664 1 0 ack 40 ------- 1 3.0 0.0 4400 8811
r 15.016496 2 1 ack 40 ------- 1 3.0 0.0 4401 8812
+ 15.016496 1 0 ack 40 ------- 1 3.0 0.0 4401 8812
- 15.016496 1 0 ack 40 ------- 1 3.0 0.0 4401 8812
r 15.017328 2 1 ack 40 ------- 1 3.0 0.0 4402 8813
+ 15.017328 1 0 ack 40 ------- 1 3.0 0.0 4402 8813
- 15.017328 1 0 ack 40 ------- 1 3.0 0.0 4402 8813
r 15.01816 2 1 ack 40 ------- 1 3.0 0.0 4403 8814
+ 15.01816 1 0 ack 40 ------- 1 3.0 0.0 4403 8814
- 15.01816 1 0 ack 40 ------- 1 3.0 0.0 4403 8814
r 15.018208 1 0 ack 40 ------- 1 3.0 0.0 4391 8802
r 15.018992 2 1 ack 40 ------- 1 3.0 0.0 4404 8815
+ 15.018992 1 0 ack 40 ------- 1 3.0 0.0 4404 8815
- 15.018992 1 0 ack 40 ------- 1 3.0 0.0 4404 8815
r 15.01904 1 0 ack 40 ------- 1 3.0 0.0 4392 8803
r 15.019824 2 1 ack 40 ------- 1 3.0 0.0 4405 8816
+ 15.019824 1 0 ack 40 ------- 1 3.0 0.0 4405 8816
- 15.019824 1 0 ack 40 ------- 1 3.0 0.0 4405 8816
r 15.019872 1 0 ack 40 ------- 1 3.0 0.0 4393 8804
r 15.020656 2 1 ack 40 ------- 1 3.0 0.0 4406 8817
+ 15.020656 1 0 ack 40 ------- 1 3.0 0.0 4406 8817
- 15.020656 1 0 ack 40 ------- 1 3.0 0.0 4406 8817
r 15.020704 1 0 ack 40 ------- 1 3.0 0.0 4394 8805
r 15.021488 2 1 ack 40 ------- 1 3.0 0.0 4407 8818
+ 15.021488 1 0 ack 40 ------- 1 3.0 0.0 4407 8818
- 15.021488 1 0 ack 40 ------- 1 3.0 0.0 4407 8818
r 15.021536 1 0 ack 40 ------- 1 3.0 0.0 4395 8806
r 15.02232 2 1 ack 40 ------- 1 3.0 0.0 4408 8819
+ 15.02232 1 0 ack 40 ------- 1 3.0 0.0 4408 8819
- 15.02232 1 0 ack 40 ------- 1 3.0 0.0 4408 8819
r 15.022368 1 0 ack 40 ------- 1 3.0 0.0 4396 8807
r 15.023152 2 1 ack 40 ------- 1 3.0 0.0 4409 8820
+ 15.023152 1 0 ack 40 ------- 1 3.0 0.0 4409 8820
- 15.023152 1 0 ack 40 ------- 1 3.0 0.0 4409 8820
r 15.0232 1 0 ack 40 ------- 1 3.0 0.0 4397 8808
r 15.023984 2 1 ack 40 ------- 1 3.0 0.0 4410 8821
+ 15.023984 1 0 ack 40 ------- 1 3.0 0.0 4410 8821
- 15.023984 1 0 ack 40 ------- 1 3.0 0.0 4410 8821
r 15.024032 1 0 ack 40 ------- 1 3.0 0.0 4398 8809
r 15.024864 1 0 ack 40 ------- 1 3.0 0.0 4399 8810
r 15.025696 1 0 ack 40 ------- 1 3.0 0.0 4400 8811
r 15.026528 1 0 ack 40 ------- 1 3.0 0.0 4401 8812
r 15.02736 1 0 ack 40 ------- 1 3.0 0.0 4402 8813
r 15.028192 1 0 ack 40 ------- 1 3.0 0.0 4403 8814
r 15.029024 1 0 ack 40 ------- 1 3.0 0.0 4404 8815
r 15.029856 1 0 ack 40 ------- 1 3.0 0.0 4405 8816
r 15.030688 1 0 ack 40 ------- 1 3.0 0.0 4406 8817
r 15.03152 1 0 ack 40 ------- 1 3.0 0.0 4407 8818
r 15.032352 1 0 ack 40 ------- 1 3.0 0.0 4408 8819
r 15.033184 1 0 ack 40 ------- 1 3.0 0.0 4409 8820
r 15.034016 1 0 ack 40 ------- 1 3.0 0.0 4410 8821
