+ 1 0 1 tcp 40 ------- 1 0.0 3.0 0 0
- 1 0 1 tcp 40 ------- 1 0.0 3.0 0 0
r 1.010032 0 1 tcp 40 ------- 1 0.0 3.0 0 0
+ 1.010032 1 2 tcp 40 ------- 1 0.0 3.0 0 0
- 1.010032 1 2 tcp 40 ------- 1 0.0 3.0 0 0
r 1.020064 1 2 tcp 40 ------- 1 0.0 3.0 0 0
+ 1.020064 2 3 tcp 40 ------- 1 0.0 3.0 0 0
- 1.020064 2 3 tcp 40 ------- 1 0.0 3.0 0 0
r 1.030096 2 3 tcp 40 ------- 1 0.0 3.0 0 0
+ 1.030096 3 2 ack 40 ------- 1 3.0 0.0 0 1
- 1.030096 3 2 ack 40 ------- 1 3.0 0.0 0 1
r 1.040128 3 2 ack 40 ------- 1 3.0 0.0 0 1
+ 1.040128 2 1 ack 40 ------- 1 3.0 0.0 0 1
- 1.040128 2 1 ack 40 ------- 1 3.0 0.0 0 1
r 1.05016 2 1 ack 40 ------- 1 3.0 0.0 0 1
+ 1.05016 1 0 ack 40 ------- 1 3.0 0.0 0 1
- 1.05016 1 0 ack 40 ------- 1 3.0 0.0 0 1
r 1.060192 1 0 ack 40 ------- 1 3.0 0.0 0 1
+ 1.060192 0 1 tcp 1040 ------- 1 0.0 3.0 1 2
- 1.060192 0 1 tcp 1040 ------- 1 0.0 3.0 1 2
+ 1.060192 0 1 tcp 1040 ------- 1 0.0 3.0 2 3
- 1.061024 0 1 tcp 1040 ------- 1 0.0 3.0 2 3
r 1.071024 0 1 tcp 1040 ------- 1 0.0 3.0 1 2
+ 1.071024 1 2 tcp 1040 ------- 1 0.0 3.0 1 2
- 1.071024 1 2 tcp 1040 ------- 1 0.0 3.0 1 2
r 1.071856 0 1 tcp 1040 ------- 1 0.0 3.0 2 3
+ 1.071856 1 2 tcp 1040 ------- 1 0.0 3.0 2 3
- 1.071856 1 2 tcp 1040 ------- 1 0.0 3.0 2 3
r 1.081856 1 2 tcp 1040 ------- 1 0.0 3.0 1 2
+ 1.081856 2 3 tcp 1040 ------- 1 0.0 3.0 1 2
- 1.081856 2 3 tcp 1040 ------- 1 0.0 3.0 1 2
r 1.082688 1 2 tcp 1040 ------- 1 0.0 3.0 2 3
+ 1.082688 2 3 tcp 1040 ------- 1 0.0 3.0 2 3
- 1.082688 2 3 tcp 1040 ------- 1 0.0 3.0 2 3
r 1.092688 2 3 tcp 1040 ------- 1 0.0 3.0 1 2
+ 1.092688 3 2 ack 40 ------- 1 3.0 0.0 1 4
- 1.092688 3 2 ack 40 ------- 1 3.0 0.0 1 4
r 1.09352 2 3 tcp 1040 ------- 1 0.0 3.0 2 3
+ 1.09352 3 2 ack 40 ------- 1 3.0 0.0 2 5
- 1.09352 3 2 ack 40 ------- 1 3.0 0.0 2 5
r 1.10272 3 2 ack 40 ------- 1 3.0 0.0 1 4
+ 1.10272 2 1 ack 40 ------- 1 3.0 0.0 1 4
- 1.10272 2 1 ack 40 ------- 1 3.0 0.0 1 4
r 1.103552 3 2 ack 40 ------- 1 3.0 0.0 2 5
+ 1.103552 2 1 ack 40 ------- 1 3.0 0.0 2 5
- 1.103552 2 1 ack 40 ------- 1 3.0 0.0 2 5
r 1.112752 2 1 ack 40 ------- 1 3.0 0.0 1 4
+ 1.112752 1 0 ack 40 ------- 1 3.0 0.0 1 4
- 1.112752 1 0 ack 40 ------- 1 3.0 0.0 1 4
r 1.113584 2 1 ack 40 ------- 1 3.0 0.0 2 5
+ 1.113584 1 0 ack 40 ------- 1 3.0 0.0 2 5
- 1.113584 1 0 ack 40 ------- 1 3.0 0.0 2 5
r 1.122784 1 0 ack 40 ------- 1 3.0 0.0 1 4
+ 1.122784 0 1 tcp 1040 ------- 1 0.0 3.0 3 6
- 1.122784 0 1 tcp 1040 ------- 1 0.0 3.0 3 6
+ 1.122784 0 1 tcp 1040 ------- 1 0.0 3.0 4 7
r 1.123616 1 0 ack 40 ------- 1 3.0 0.0 2 5
+ 1.123616 0 1 tcp 1040 ------- 1 0.0 3.0 5 8
+ 1.123616 0 1 tcp 1040 ------- 1 0.0 3.0 6 9
- 1.123616 0 1 tcp 1040 ------- 1 0.0 3.0 4 7
- 1.124448 0 1 tcp 1040 ------- 1 0.0 3.0 5 8
- 1.12528 0 1 tcp 1040 ------- 1 0.0 3.0 6 9
r 1.133616 0 1 tcp 1040 ------- 1 0.0 3.0 3 6
+ 1.133616 1 2 tcp 1040 ------- 1 0.0 3.0 3 6
- 1.133616 1 2 tcp 1040 ------- 1 0.0 3.0 3 6
r 1.134448 0 1 tcp 1040 ------- 1 0.0 3.0 4 7
+ 1.134448 1 2 tcp 1040 ------- 1 0.0 3.0 4 7
- 1.134448 1 2 tcp 1040 ------- 1 0.0 3.0 4 7
r 1.13528 0 1 tcp 1040 ------- 1 0.0 3.0 5 8
+ 1.13528 1 2 tcp 1040 ------- 1 0.0 3.0 5 8
- 1.13528 1 2 tcp 1040 ------- 1 0.0 3.0 5 8
r 1.136112 0 1 tcp 1040 ------- 1 0.0 3.0 6 9
+ 1.136112 1 2 tcp 1040 ------- 1 0.0 3.0 6 9
- 1.136112 1 2 tcp 1040 ------- 1 0.0 3.0 6 9
r 1.144448 1 2 tcp 1040 ------- 1 0.0 3.0 3 6
+ 1.144448 2 3 tcp 1040 ------- 1 0.0 3.0 3 6
- 1.144448 2 3 tcp 1040 ------- 1 0.0 3.0 3 6
r 1.14528 1 2 tcp 1040 ------- 1 0.0 3.0 4 7
+ 1.14528 2 3 tcp 1040 ------- 1 0.0 3.0 4 7
- 1.14528 2 3 tcp 1040 ------- 1 0.0 3.0 4 7
r 1.146112 1 2 tcp 1040 ------- 1 0.0 3.0 5 8
+ 1.146112 2 3 tcp 1040 ------- 1 0.0 3.0 5 8
- 1.146112 2 3 tcp 1040 ------- 1 0.0 3.0 5 8
r 1.146944 1 2 tcp 1040 ------- 1 0.0 3.0 6 9
+ 1.146944 2 3 tcp 1040 ------- 1 0.0 3.0 6 9
- 1.146944 2 3 tcp 1040 ------- 1 0.0 3.0 6 9
r 1.15528 2 3 tcp 1040 ------- 1 0.0 3.0 3 6
+ 1.15528 3 2 ack 40 ------- 1 3.0 0.0 3 10
- 1.15528 3 2 ack 40 ------- 1 3.0 0.0 3 10
r 1.156112 2 3 tcp 1040 ------- 1 0.0 3.0 4 7
+ 1.156112 3 2 ack 40 ------- 1 3.0 0.0 4 11
- 1.156112 3 2 ack 40 ------- 1 3.0 0.0 4 11
r 1.156944 2 3 tcp 1040 ------- 1 0.0 3.0 5 8
+ 1.156944 3 2 ack 40 ------- 1 3.0 0.0 5 12
- 1.156944 3 2 ack 40 ------- 1 3.0 0.0 5 12
r 1.157776 2 3 tcp 1040 ------- 1 0.0 3.0 6 9
+ 1.157776 3 2 ack 40 ------- 1 3.0 0.0 6 13
- 1.157776 3 2 ack 40 ------- 1 3.0 0.0 6 13
r 1.165312 3 2 ack 40 ------- 1 3.0 0.0 3 10
+ 1.165312 2 1 ack 40 ------- 1 3.0 0.0 3 10
- 1.165312 2 1 ack 40 ------- 1 3.0 0.0 3 10
r 1.166144 3 2 ack 40 ------- 1 3.0 0.0 4 11
+ 1.166144 2 1 ack 40 ------- 1 3.0 0.0 4 11
- 1.166144 2 1 ack 40 ------- 1 3.0 0.0 4 11
r 1.166976 3 2 ack 40 ------- 1 3.0 0.0 5 12
+ 1.166976 2 1 ack 40 ------- 1 3.0 0.0 5 12
- 1.166976 2 1 ack 40 ------- 1 3.0 0.0 5 12
r 1.167808 3 2 ack 40 ------- 1 3.0 0.0 6 13
+ 1.167808 2 1 ack 40 ------- 1 3.0 0.0 6 13
- 1.167808 2 1 ack 40 ------- 1 3.0 0.0 6 13
r 1.175344 2 1 ack 40 ------- 1 3.0 0.0 3 10
+ 1.175344 1 0 ack 40 ------- 1 3.0 0.0 3 10
- 1.175344 1 0 ack 40 ------- 1 3.0 0.0 3 10
r 1.176176 2 1 ack 40 ------- 1 3.0 0.0 4 11
+ 1.176176 1 0 ack 40 ------- 1 3.0 0.0 4 11
- 1.176176 1 0 ack 40 ------- 1 3.0 0.0 4 11
r 1.177008 2 1 ack 40 ------- 1 3.0 0.0 5 12
+ 1.177008 1 0 ack 40 ------- 1 3.0 0.0 5 12
- 1.177008 1 0 ack 40 ------- 1 3.0 0.0 5 12
r 1.17784 2 1 ack 40 ------- 1 3.0 0.0 6 13
+ 1.17784 1 0 ack 40 ------- 1 3.0 0.0 6 13
- 1.17784 1 0 ack 40 ------- 1 3.0 0.0 6 13
r 1.185376 1 0 ack 40 ------- 1 3.0 0.0 3 10
+ 1.185376 0 1 tcp 1040 ------- 1 0.0 3.0 7 14
- 1.185376 0 1 tcp 1040 ------- 1 0.0 3.0 7 14
+ 1.185376 0 1 tcp 1040 ------- 1 0.0 3.0 8 15
r 1.186208 1 0 ack 40 ------- 1 3.0 0.0 4 11
+ 1.186208 0 1 tcp 1040 ------- 1 0.0 3.0 9 16
+ 1.186208 0 1 tcp 1040 ------- 1 0.0 3.0 10 17
- 1.186208 0 1 tcp 1040 ------- 1 0.0 3.0 8 15
r 1.18704 1 0 ack 40 ------- 1 3.0 0.0 5 12
+ 1.18704 0 1 tcp 1040 ------- 1 0.0 3.0 11 18
+ 1.18704 0 1 tcp 1040 ------- 1 0.0 3.0 12 19
- 1.18704 0 1 tcp 1040 ------- 1 0.0 3.0 9 16
r 1.187872 1 0 ack 40 ------- 1 3.0 0.0 6 13
+ 1.187872 0 1 tcp 1040 ------- 1 0.0 3.0 13 20
+ 1.187872 0 1 tcp 1040 ------- 1 0.0 3.0 14 21
- 1.187872 0 1 tcp 1040 ------- 1 0.0 3.0 10 17
- 1.188704 0 1 tcp 1040 ------- 1 0.0 3.0 11 18
- 1.189536 0 1 tcp 1040 ------- 1 0.0 3.0 12 19
- 1.190368 0 1 tcp 1040 ------- 1 0.0 3.0 13 20
- 1.1912 0 1 tcp 1040 ------- 1 0.0 3.0 14 21
r 1.196208 0 1 tcp 1040 ------- 1 0.0 3.0 7 14
+ 1.196208 1 2 tcp 1040 ------- 1 0.0 3.0 7 14
- 1.196208 1 2 tcp 1040 ------- 1 0.0 3.0 7 14
r 1.19704 0 1 tcp 1040 ------- 1 0.0 3.0 8 15
+ 1.19704 1 2 tcp 1040 ------- 1 0.0 3.0 8 15
- 1.19704 1 2 tcp 1040 ------- 1 0.0 3.0 8 15
r 1.197872 0 1 tcp 1040 ------- 1 0.0 3.0 9 16
+ 1.197872 1 2 tcp 1040 ------- 1 0.0 3.0 9 16
- 1.197872 1 2 tcp 1040 ------- 1 0.0 3.0 9 16
r 1.198704 0 1 tcp 1040 ------- 1 0.0 3.0 10 17
+ 1.198704 1 2 tcp 1040 ------- 1 0.0 3.0 10 17
- 1.198704 1 2 tcp 1040 ------- 1 0.0 3.0 10 17
r 1.199536 0 1 tcp 1040 ------- 1 0.0 3.0 11 18
+ 1.199536 1 2 tcp 1040 ------- 1 0.0 3.0 11 18
- 1.199536 1 2 tcp 1040 ------- 1 0.0 3.0 11 18
r 1.200368 0 1 tcp 1040 ------- 1 0.0 3.0 12 19
+ 1.200368 1 2 tcp 1040 ------- 1 0.0 3.0 12 19
- 1.200368 1 2 tcp 1040 ------- 1 0.0 3.0 12 19
r 1.2012 0 1 tcp 1040 ------- 1 0.0 3.0 13 20
+ 1.2012 1 2 tcp 1040 ------- 1 0.0 3.0 13 20
- 1.2012 1 2 tcp 1040 ------- 1 0.0 3.0 13 20
r 1.202032 0 1 tcp 1040 ------- 1 0.0 3.0 14 21
+ 1.202032 1 2 tcp 1040 ------- 1 0.0 3.0 14 21
- 1.202032 1 2 tcp 1040 ------- 1 0.0 3.0 14 21
r 1.20704 1 2 tcp 1040 ------- 1 0.0 3.0 7 14
+ 1.20704 2 3 tcp 1040 ------- 1 0.0 3.0 7 14
- 1.20704 2 3 tcp 1040 ------- 1 0.0 3.0 7 14
r 1.207872 1 2 tcp 1040 ------- 1 0.0 3.0 8 15
+ 1.207872 2 3 tcp 1040 ------- 1 0.0 3.0 8 15
- 1.207872 2 3 tcp 1040 ------- 1 0.0 3.0 8 15
r 1.208704 1 2 tcp 1040 ------- 1 0.0 3.0 9 16
+ 1.208704 2 3 tcp 1040 ------- 1 0.0 3.0 9 16
- 1.208704 2 3 tcp 1040 ------- 1 0.0 3.0 9 16
r 1.209536 1 2 tcp 1040 ------- 1 0.0 3.0 10 17
+ 1.209536 2 3 tcp 1040 ------- 1 0.0 3.0 10 17
- 1.209536 2 3 tcp 1040 ------- 1 0.0 3.0 10 17
r 1.210368 1 2 tcp 1040 ------- 1 0.0 3.0 11 18
+ 1.210368 2 3 tcp 1040 ------- 1 0.0 3.0 11 18
- 1.210368 2 3 tcp 1040 ------- 1 0.0 3.0 11 18
r 1.2112 1 2 tcp 1040 ------- 1 0.0 3.0 12 19
+ 1.2112 2 3 tcp 1040 ------- 1 0.0 3.0 12 19
- 1.2112 2 3 tcp 1040 ------- 1 0.0 3.0 12 19
r 1.212032 1 2 tcp 1040 ------- 1 0.0 3.0 13 20
+ 1.212032 2 3 tcp 1040 ------- 1 0.0 3.0 13 20
- 1.212032 2 3 tcp 1040 ------- 1 0.0 3.0 13 20
r 1.212864 1 2 tcp 1040 ------- 1 0.0 3.0 14 21
+ 1.212864 2 3 tcp 1040 ------- 1 0.0 3.0 14 21
- 1.212864 2 3 tcp 1040 ------- 1 0.0 3.0 14 21
r 1.217872 2 3 tcp 1040 ------- 1 0.0 3.0 7 14
+ 1.217872 3 2 ack 40 ------- 1 3.0 0.0 7 22
- 1.217872 3 2 ack 40 ------- 1 3.0 0.0 7 22
r 1.218704 2 3 tcp 1040 ------- 1 0.0 3.0 8 15
+ 1.218704 3 2 ack 40 ------- 1 3.0 0.0 8 23
- 1.218704 3 2 ack 40 ------- 1 3.0 0.0 8 23
r 1.219536 2 3 tcp 1040 ------- 1 0.0 3.0 9 16
+ 1.219536 3 2 ack 40 ------- 1 3.0 0.0 9 24
- 1.219536 3 2 ack 40 ------- 1 3.0 0.0 9 24
r 1.220368 2 3 tcp 1040 ------- 1 0.0 3.0 10 17
+ 1.220368 3 2 ack 40 ------- 1 3.0 0.0 10 25
- 1.220368 3 2 ack 40 ------- 1 3.0 0.0 10 25
r 1.2212 2 3 tcp 1040 ------- 1 0.0 3.0 11 18
+ 1.2212 3 2 ack 40 ------- 1 3.0 0.0 11 26
- 1.2212 3 2 ack 40 ------- 1 3.0 0.0 11 26
r 1.222032 2 3 tcp 1040 ------- 1 0.0 3.0 12 19
+ 1.222032 3 2 ack 40 ------- 1 3.0 0.0 12 27
- 1.222032 3 2 ack 40 ------- 1 3.0 0.0 12 27
r 1.222864 2 3 tcp 1040 ------- 1 0.0 3.0 13 20
+ 1.222864 3 2 ack 40 ------- 1 3.0 0.0 13 28
- 1.222864 3 2 ack 40 ------- 1 3.0 0.0 13 28
r 1.223696 2 3 tcp 1040 ------- 1 0.0 3.0 14 21
+ 1.223696 3 2 ack 40 ------- 1 3.0 0.0 14 29
- 1.223696 3 2 ack 40 ------- 1 3.0 0.0 14 29
r 1.227904 3 2 ack 40 ------- 1 3.0 0.0 7 22
+ 1.227904 2 1 ack 40 ------- 1 3.0 0.0 7 22
- 1.227904 2 1 ack 40 ------- 1 3.0 0.0 7 22
r 1.228736 3 2 ack 40 ------- 1 3.0 0.0 8 23
+ 1.228736 2 1 ack 40 ------- 1 3.0 0.0 8 23
- 1.228736 2 1 ack 40 ------- 1 3.0 0.0 8 23
r 1.229568 3 2 ack 40 ------- 1 3.0 0.0 9 24
+ 1.229568 2 1 ack 40 ------- 1 3.0 0.0 9 24
- 1.229568 2 1 ack 40 ------- 1 3.0 0.0 9 24
r 1.2304 3 2 ack 40 ------- 1 3.0 0.0 10 25
+ 1.2304 2 1 ack 40 ------- 1 3.0 0.0 10 25
- 1.2304 2 1 ack 40 ------- 1 3.0 0.0 10 25
r 1.231232 3 2 ack 40 ------- 1 3.0 0.0 11 26
+ 1.231232 2 1 ack 40 ------- 1 3.0 0.0 11 26
- 1.231232 2 1 ack 40 ------- 1 3.0 0.0 11 26
r 1.232064 3 2 ack 40 ------- 1 3.0 0.0 12 27
+ 1.232064 2 1 ack 40 ------- 1 3.0 0.0 12 27
- 1.232064 2 1 ack 40 ------- 1 3.0 0.0 12 27
r 1.232896 3 2 ack 40 ------- 1 3.0 0.0 13 28
+ 1.232896 2 1 ack 40 ------- 1 3.0 0.0 13 28
- 1.232896 2 1 ack 40 ------- 1 3.0 0.0 13 28
r 1.233728 3 2 ack 40 ------- 1 3.0 0.0 14 29
+ 1.233728 2 1 ack 40 ------- 1 3.0 0.0 14 29
- 1.233728 2 1 ack 40 ------- 1 3.0 0.0 14 29
r 1.237936 2 1 ack 40 ------- 1 3.0 0.0 7 22
+ 1.237936 1 0 ack 40 ------- 1 3.0 0.0 7 22
- 1.237936 1 0 ack 40 ------- 1 3.0 0.0 7 22
r 1.238768 2 1 ack 40 ------- 1 3.0 0.0 8 23
+ 1.238768 1 0 ack 40 ------- 1 3.0 0.0 8 23
- 1.238768 1 0 ack 40 ------- 1 3.0 0.0 8 23
r 1.2396 2 1 ack 40 ------- 1 3.0 0.0 9 24
+ 1.2396 1 0 ack 40 ------- 1 3.0 0.0 9 24
- 1.2396 1 0 ack 40 ------- 1 3.0 0.0 9 24
r 1.240432 2 1 ack 40 ------- 1 3.0 0.0 10 25
+ 1.240432 1 0 ack 40 ------- 1 3.0 0.0 10 25
- 1.240432 1 0 ack 40 ------- 1 3.0 0.0 10 25
r 1.241264 2 1 ack 40 ------- 1 3.0 0.0 11 26
+ 1.241264 1 0 ack 40 ------- 1 3.0 0.0 11 26
- 1.241264 1 0 ack 40 ------- 1 3.0 0.0 11 26
r 1.242096 2 1 ack 40 ------- 1 3.0 0.0 12 27
+ 1.242096 1 0 ack 40 ------- 1 3.0 0.0 12 27
- 1.242096 1 0 ack 40 ------- 1 3.0 0.0 12 27
r 1.242928 2 1 ack 40 ------- 1 3.0 0.0 13 28
+ 1.242928 1 0 ack 40 ------- 1 3.0 0.0 13 28
- 1.242928 1 0 ack 40 ------- 1 3.0 0.0 13 28
r 1.24376 2 1 ack 40 ------- 1 3.0 0.0 14 29
+ 1.24376 1 0 ack 40 ------- 1 3.0 0.0 14 29
- 1.24376 1 0 ack 40 ------- 1 3.0 0.0 14 29
r 1.247968 1 0 ack 40 ------- 1 3.0 0.0 7 22
+ 1.247968 0 1 tcp 1040 ------- 1 0.0 3.0 15 30
- 1.247968 0 1 tcp 1040 ------- 1 0.0 3.0 15 30
+ 1.247968 0 1 tcp 1040 ------- 1 0.0 3.0 16 31
r 1.2488 1 0 ack 40 ------- 1 3.0 0.0 8 23
+ 1.2488 0 1 tcp 1040 ------- 1 0.0 3.0 17 32
+ 1.2488 0 1 tcp 1040 ------- 1 0.0 3.0 18 33
- 1.2488 0 1 tcp 1040 ------- 1 0.0 3.0 16 31
r 1.249632 1 0 ack 40 ------- 1 3.0 0.0 9 24
+ 1.249632 0 1 tcp 1040 ------- 1 0.0 3.0 19 34
+ 1.249632 0 1 tcp 1040 ------- 1 0.0 3.0 20 35
- 1.249632 0 1 tcp 1040 ------- 1 0.0 3.0 17 32
r 1.250464 1 0 ack 40 ------- 1 3.0 0.0 10 25
+ 1.250464 0 1 tcp 1040 ------- 1 0.0 3.0 21 36
+ 1.250464 0 1 tcp 1040 ------- 1 0.0 3.0 22 37
- 1.250464 0 1 tcp 1040 ------- 1 0.0 3.0 18 33
r 1.251296 1 0 ack 40 ------- 1 3.0 0.0 11 26
+ 1.251296 0 1 tcp 1040 ------- 1 0.0 3.0 23 38
+ 1.251296 0 1 tcp 1040 ------- 1 0.0 3.0 24 39
- 1.251296 0 1 tcp 1040 ------- 1 0.0 3.0 19 34
r 1.252128 1 0 ack 40 ------- 1 3.0 0.0 12 27
+ 1.252128 0 1 tcp 1040 ------- 1 0.0 3.0 25 40
+ 1.252128 0 1 tcp 1040 ------- 1 0.0 3.0 26 41
- 1.252128 0 1 tcp 1040 ------- 1 0.0 3.0 20 35
r 1.25296 1 0 ack 40 ------- 1 3.0 0.0 13 28
+ 1.25296 0 1 tcp 1040 ------- 1 0.0 3.0 27 42
+ 1.25296 0 1 tcp 1040 ------- 1 0.0 3.0 28 43
- 1.25296 0 1 tcp 1040 ------- 1 0.0 3.0 21 36
r 1.253792 1 0 ack 40 ------- 1 3.0 0.0 14 29
+ 1.253792 0 1 tcp 1040 ------- 1 0.0 3.0 29 44
+ 1.253792 0 1 tcp 1040 ------- 1 0.0 3.0 30 45
- 1.253792 0 1 tcp 1040 ------- 1 0.0 3.0 22 37
- 1.254624 0 1 tcp 1040 ------- 1 0.0 3.0 23 38
- 1.255456 0 1 tcp 1040 ------- 1 0.0 3.0 24 39
- 1.256288 0 1 tcp 1040 ------- 1 0.0 3.0 25 40
- 1.25712 0 1 tcp 1040 ------- 1 0.0 3.0 26 41
- 1.257952 0 1 tcp 1040 ------- 1 0.0 3.0 27 42
- 1.258784 0 1 tcp 1040 ------- 1 0.0 3.0 28 43
r 1.2588 0 1 tcp 1040 ------- 1 0.0 3.0 15 30
+ 1.2588 1 2 tcp 1040 ------- 1 0.0 3.0 15 30
- 1.2588 1 2 tcp 1040 ------- 1 0.0 3.0 15 30
- 1.259616 0 1 tcp 1040 ------- 1 0.0 3.0 29 44
r 1.259632 0 1 tcp 1040 ------- 1 0.0 3.0 16 31
+ 1.259632 1 2 tcp 1040 ------- 1 0.0 3.0 16 31
- 1.259632 1 2 tcp 1040 ------- 1 0.0 3.0 16 31
- 1.260448 0 1 tcp 1040 ------- 1 0.0 3.0 30 45
r 1.260464 0 1 tcp 1040 ------- 1 0.0 3.0 17 32
+ 1.260464 1 2 tcp 1040 ------- 1 0.0 3.0 17 32
- 1.260464 1 2 tcp 1040 ------- 1 0.0 3.0 17 32
r 1.261296 0 1 tcp 1040 ------- 1 0.0 3.0 18 33
+ 1.261296 1 2 tcp 1040 ------- 1 0.0 3.0 18 33
- 1.261296 1 2 tcp 1040 ------- 1 0.0 3.0 18 33
r 1.262128 0 1 tcp 1040 ------- 1 0.0 3.0 19 34
+ 1.262128 1 2 tcp 1040 ------- 1 0.0 3.0 19 34
- 1.262128 1 2 tcp 1040 ------- 1 0.0 3.0 19 34
r 1.26296 0 1 tcp 1040 ------- 1 0.0 3.0 20 35
+ 1.26296 1 2 tcp 1040 ------- 1 0.0 3.0 20 35
- 1.26296 1 2 tcp 1040 ------- 1 0.0 3.0 20 35
r 1.263792 0 1 tcp 1040 ------- 1 0.0 3.0 21 36
+ 1.263792 1 2 tcp 1040 ------- 1 0.0 3.0 21 36
- 1.263792 1 2 tcp 1040 ------- 1 0.0 3.0 21 36
r 1.264624 0 1 tcp 1040 ------- 1 0.0 3.0 22 37
+ 1.264624 1 2 tcp 1040 ------- 1 0.0 3.0 22 37
- 1.264624 1 2 tcp 1040 ------- 1 0.0 3.0 22 37
r 1.265456 0 1 tcp 1040 ------- 1 0.0 3.0 23 38
+ 1.265456 1 2 tcp 1040 ------- 1 0.0 3.0 23 38
- 1.265456 1 2 tcp 1040 ------- 1 0.0 3.0 23 38
r 1.266288 0 1 tcp 1040 ------- 1 0.0 3.0 24 39
+ 1.266288 1 2 tcp 1040 ------- 1 0.0 3.0 24 39
- 1.266288 1 2 tcp 1040 ------- 1 0.0 3.0 24 39
r 1.26712 0 1 tcp 1040 ------- 1 0.0 3.0 25 40
+ 1.26712 1 2 tcp 1040 ------- 1 0.0 3.0 25 40
- 1.26712 1 2 tcp 1040 ------- 1 0.0 3.0 25 40
r 1.267952 0 1 tcp 1040 ------- 1 0.0 3.0 26 41
+ 1.267952 1 2 tcp 1040 ------- 1 0.0 3.0 26 41
- 1.267952 1 2 tcp 1040 ------- 1 0.0 3.0 26 41
r 1.268784 0 1 tcp 1040 ------- 1 0.0 3.0 27 42
+ 1.268784 1 2 tcp 1040 ------- 1 0.0 3.0 27 42
- 1.268784 1 2 tcp 1040 ------- 1 0.0 3.0 27 42
r 1.269616 0 1 tcp 1040 ------- 1 0.0 3.0 28 43
+ 1.269616 1 2 tcp 1040 ------- 1 0.0 3.0 28 43
- 1.269616 1 2 tcp 1040 ------- 1 0.0 3.0 28 43
r 1.269632 1 2 tcp 1040 ------- 1 0.0 3.0 15 30
+ 1.269632 2 3 tcp 1040 ------- 1 0.0 3.0 15 30
- 1.269632 2 3 tcp 1040 ------- 1 0.0 3.0 15 30
r 1.270448 0 1 tcp 1040 ------- 1 0.0 3.0 29 44
+ 1.270448 1 2 tcp 1040 ------- 1 0.0 3.0 29 44
- 1.270448 1 2 tcp 1040 ------- 1 0.0 3.0 29 44
r 1.270464 1 2 tcp 1040 ------- 1 0.0 3.0 16 31
+ 1.270464 2 3 tcp 1040 ------- 1 0.0 3.0 16 31
- 1.270464 2 3 tcp 1040 ------- 1 0.0 3.0 16 31
r 1.27128 0 1 tcp 1040 ------- 1 0.0 3.0 30 45
+ 1.27128 1 2 tcp 1040 ------- 1 0.0 3.0 30 45
- 1.27128 1 2 tcp 1040 ------- 1 0.0 3.0 30 45
r 1.271296 1 2 tcp 1040 ------- 1 0.0 3.0 17 32
+ 1.271296 2 3 tcp 1040 ------- 1 0.0 3.0 17 32
- 1.271296 2 3 tcp 1040 ------- 1 0.0 3.0 17 32
r 1.272128 1 2 tcp 1040 ------- 1 0.0 3.0 18 33
+ 1.272128 2 3 tcp 1040 ------- 1 0.0 3.0 18 33
- 1.272128 2 3 tcp 1040 ------- 1 0.0 3.0 18 33
r 1.27296 1 2 tcp 1040 ------- 1 0.0 3.0 19 34
+ 1.27296 2 3 tcp 1040 ------- 1 0.0 3.0 19 34
- 1.27296 2 3 tcp 1040 ------- 1 0.0 3.0 19 34
r 1.273792 1 2 tcp 1040 ------- 1 0.0 3.0 20 35
+ 1.273792 2 3 tcp 1040 ------- 1 0.0 3.0 20 35
- 1.273792 2 3 tcp 1040 ------- 1 0.0 3.0 20 35
r 1.274624 1 2 tcp 1040 ------- 1 0.0 3.0 21 36
+ 1.274624 2 3 tcp 1040 ------- 1 0.0 3.0 21 36
- 1.274624 2 3 tcp 1040 ------- 1 0.0 3.0 21 36
r 1.275456 1 2 tcp 1040 ------- 1 0.0 3.0 22 37
+ 1.275456 2 3 tcp 1040 ------- 1 0.0 3.0 22 37
- 1.275456 2 3 tcp 1040 ------- 1 0.0 3.0 22 37
r 1.276288 1 2 tcp 1040 ------- 1 0.0 3.0 23 38
+ 1.276288 2 3 tcp 1040 ------- 1 0.0 3.0 23 38
- 1.276288 2 3 tcp 1040 ------- 1 0.0 3.0 23 38
r 1.27712 1 2 tcp 1040 ------- 1 0.0 3.0 24 39
+ 1.27712 2 3 tcp 1040 ------- 1 0.0 3.0 24 39
- 1.27712 2 3 tcp 1040 ------- 1 0.0 3.0 24 39
r 1.277952 1 2 tcp 1040 ------- 1 0.0 3.0 25 40
+ 1.277952 2 3 tcp 1040 ------- 1 0.0 3.0 25 40
- 1.277952 2 3 tcp 1040 ------- 1 0.0 3.0 25 40
r 1.278784 1 2 tcp 1040 ------- 1 0.0 3.0 26 41
+ 1.278784 2 3 tcp 1040 ------- 1 0.0 3.0 26 41
- 1.278784 2 3 tcp 1040 ------- 1 0.0 3.0 26 41
r 1.279616 1 2 tcp 1040 ------- 1 0.0 3.0 27 42
+ 1.279616 2 3 tcp 1040 ------- 1 0.0 3.0 27 42
- 1.279616 2 3 tcp 1040 ------- 1 0.0 3.0 27 42
r 1.280448 1 2 tcp 1040 ------- 1 0.0 3.0 28 43
+ 1.280448 2 3 tcp 1040 ------- 1 0.0 3.0 28 43
- 1.280448 2 3 tcp 1040 ------- 1 0.0 3.0 28 43
r 1.280464 2 3 tcp 1040 ------- 1 0.0 3.0 15 30
+ 1.280464 3 2 ack 40 ------- 1 3.0 0.0 15 46
- 1.280464 3 2 ack 40 ------- 1 3.0 0.0 15 46
r 1.28128 1 2 tcp 1040 ------- 1 0.0 3.0 29 44
+ 1.28128 2 3 tcp 1040 ------- 1 0.0 3.0 29 44
- 1.28128 2 3 tcp 1040 ------- 1 0.0 3.0 29 44
r 1.281296 2 3 tcp 1040 ------- 1 0.0 3.0 16 31
+ 1.281296 3 2 ack 40 ------- 1 3.0 0.0 16 47
- 1.281296 3 2 ack 40 ------- 1 3.0 0.0 16 47
r 1.282112 1 2 tcp 1040 ------- 1 0.0 3.0 30 45
+ 1.282112 2 3 tcp 1040 ------- 1 0.0 3.0 30 45
- 1.282112 2 3 tcp 1040 ------- 1 0.0 3.0 30 45
r 1.282128 2 3 tcp 1040 ------- 1 0.0 3.0 17 32
+ 1.282128 3 2 ack 40 ------- 1 3.0 0.0 17 48
- 1.282128 3 2 ack 40 ------- 1 3.0 0.0 17 48
r 1.28296 2 3 tcp 1040 ------- 1 0.0 3.0 18 33
+ 1.28296 3 2 ack 40 ------- 1 3.0 0.0 18 49
- 1.28296 3 2 ack 40 ------- 1 3.0 0.0 18 49
r 1.283792 2 3 tcp 1040 ------- 1 0.0 3.0 19 34
+ 1.283792 3 2 ack 40 ------- 1 3.0 0.0 19 50
- 1.283792 3 2 ack 40 ------- 1 3.0 0.0 19 50
r 1.284624 2 3 tcp 1040 ------- 1 0.0 3.0 20 35
+ 1.284624 3 2 ack 40 ------- 1 3.0 0.0 20 51
- 1.284624 3 2 ack 40 ------- 1 3.0 0.0 20 51
r 1.285456 2 3 tcp 1040 ------- 1 0.0 3.0 21 36
+ 1.285456 3 2 ack 40 ------- 1 3.0 0.0 21 52
- 1.285456 3 2 ack 40 ------- 1 3.0 0.0 21 52
r 1.286288 2 3 tcp 1040 ------- 1 0.0 3.0 22 37
+ 1.286288 3 2 ack 40 ------- 1 3.0 0.0 22 53
- 1.286288 3 2 ack 40 ------- 1 3.0 0.0 22 53
r 1.28712 2 3 tcp 1040 ------- 1 0.0 3.0 23 38
+ 1.28712 3 2 ack 40 ------- 1 3.0 0.0 23 54
- 1.28712 3 2 ack 40 ------- 1 3.0 0.0 23 54
r 1.287952 2 3 tcp 1040 ------- 1 0.0 3.0 24 39
+ 1.287952 3 2 ack 40 ------- 1 3.0 0.0 24 55
- 1.287952 3 2 ack 40 ------- 1 3.0 0.0 24 55
r 1.288784 2 3 tcp 1040 ------- 1 0.0 3.0 25 40
+ 1.288784 3 2 ack 40 ------- 1 3.0 0.0 25 56
- 1.288784 3 2 ack 40 ------- 1 3.0 0.0 25 56
r 1.289616 2 3 tcp 1040 ------- 1 0.0 3.0 26 41
+ 1.289616 3 2 ack 40 ------- 1 3.0 0.0 26 57
- 1.289616 3 2 ack 40 ------- 1 3.0 0.0 26 57
r 1.290448 2 3 tcp 1040 ------- 1 0.0 3.0 27 42
+ 1.290448 3 2 ack 40 ------- 1 3.0 0.0 27 58
- 1.290448 3 2 ack 40 ------- 1 3.0 0.0 27 58
r 1.290496 3 2 ack 40 ------- 1 3.0 0.0 15 46
+ 1.290496 2 1 ack 40 ------- 1 3.0 0.0 15 46
- 1.290496 2 1 ack 40 ------- 1 3.0 0.0 15 46
r 1.29128 2 3 tcp 1040 ------- 1 0.0 3.0 28 43
+ 1.29128 3 2 ack 40 ------- 1 3.0 0.0 28 59
- 1.29128 3 2 ack 40 ------- 1 3.0 0.0 28 59
r 1.291328 3 2 ack 40 ------- 1 3.0 0.0 16 47
+ 1.291328 2 1 ack 40 ------- 1 3.0 0.0 16 47
- 1.291328 2 1 ack 40 ------- 1 3.0 0.0 16 47
r 1.292112 2 3 tcp 1040 ------- 1 0.0 3.0 29 44
+ 1.292112 3 2 ack 40 ------- 1 3.0 0.0 29 60
- 1.292112 3 2 ack 40 ------- 1 3.0 0.0 29 60
r 1.29216 3 2 ack 40 ------- 1 3.0 0.0 17 48
+ 1.29216 2 1 ack 40 ------- 1 3.0 0.0 17 48
- 1.29216 2 1 ack 40 ------- 1 3.0 0.0 17 48
r 1.292944 2 3 tcp 1040 ------- 1 0.0 3.0 30 45
+ 1.292944 3 2 ack 40 ------- 1 3.0 0.0 30 61
- 1.292944 3 2 ack 40 ------- 1 3.0 0.0 30 61
r 1.292992 3 2 ack 40 ------- 1 3.0 0.0 18 49
+ 1.292992 2 1 ack 40 ------- 1 3.0 0.0 18 49
- 1.292992 2 1 ack 40 ------- 1 3.0 0.0 18 49
r 1.293824 3 2 ack 40 ------- 1 3.0 0.0 19 50
+ 1.293824 2 1 ack 40 ------- 1 3.0 0.0 19 50
- 1.293824 2 1 ack 40 ------- 1 3.0 0.0 19 50
r 1.294656 3 2 ack 40 ------- 1 3.0 0.0 20 51
+ 1.294656 2 1 ack 40 ------- 1 3.0 0.0 20 51
- 1.294656 2 1 ack 40 ------- 1 3.0 0.0 20 51
r 1.295488 3 2 ack 40 ------- 1 3.0 0.0 21 52
+ 1.295488 2 1 ack 40 ------- 1 3.0 0.0 21 52
- 1.295488 2 1 ack 40 ------- 1 3.0 0.0 21 52
r 1.29632 3 2 ack 40 ------- 1 3.0 0.0 22 53
+ 1.29632 2 1 ack 40 ------- 1 3.0 0.0 22 53
- 1.29632 2 1 ack 40 ------- 1 3.0 0.0 22 53
r 1.297152 3 2 ack 40 ------- 1 3.0 0.0 23 54
+ 1.297152 2 1 ack 40 ------- 1 3.0 0.0 23 54
- 1.297152 2 1 ack 40 ------- 1 3.0 0.0 23 54
r 1.297984 3 2 ack 40 ------- 1 3.0 0.0 24 55
+ 1.297984 2 1 ack 40 ------- 1 3.0 0.0 24 55
- 1.297984 2 1 ack 40 ------- 1 3.0 0.0 24 55
r 1.298816 3 2 ack 40 ------- 1 3.0 0.0 25 56
+ 1.298816 2 1 ack 40 ------- 1 3.0 0.0 25 56
- 1.298816 2 1 ack 40 ------- 1 3.0 0.0 25 56
r 1.299648 3 2 ack 40 ------- 1 3.0 0.0 26 57
+ 1.299648 2 1 ack 40 ------- 1 3.0 0.0 26 57
- 1.299648 2 1 ack 40 ------- 1 3.0 0.0 26 57
r 1.30048 3 2 ack 40 ------- 1 3.0 0.0 27 58
+ 1.30048 2 1 ack 40 ------- 1 3.0 0.0 27 58
- 1.30048 2 1 ack 40 ------- 1 3.0 0.0 27 58
r 1.300528 2 1 ack 40 ------- 1 3.0 0.0 15 46
+ 1.300528 1 0 ack 40 ------- 1 3.0 0.0 15 46
- 1.300528 1 0 ack 40 ------- 1 3.0 0.0 15 46
r 1.301312 3 2 ack 40 ------- 1 3.0 0.0 28 59
+ 1.301312 2 1 ack 40 ------- 1 3.0 0.0 28 59
- 1.301312 2 1 ack 40 ------- 1 3.0 0.0 28 59
r 1.30136 2 1 ack 40 ------- 1 3.0 0.0 16 47
+ 1.30136 1 0 ack 40 ------- 1 3.0 0.0 16 47
- 1.30136 1 0 ack 40 ------- 1 3.0 0.0 16 47
r 1.302144 3 2 ack 40 ------- 1 3.0 0.0 29 60
+ 1.302144 2 1 ack 40 ------- 1 3.0 0.0 29 60
- 1.302144 2 1 ack 40 ------- 1 3.0 0.0 29 60
r 1.302192 2 1 ack 40 ------- 1 3.0 0.0 17 48
+ 1.302192 1 0 ack 40 ------- 1 3.0 0.0 17 48
- 1.302192 1 0 ack 40 ------- 1 3.0 0.0 17 48
r 1.302976 3 2 ack 40 ------- 1 3.0 0.0 30 61
+ 1.302976 2 1 ack 40 ------- 1 3.0 0.0 30 61
- 1.302976 2 1 ack 40 ------- 1 3.0 0.0 30 61
r 1.303024 2 1 ack 40 ------- 1 3.0 0.0 18 49
+ 1.303024 1 0 ack 40 ------- 1 3.0 0.0 18 49
- 1.303024 1 0 ack 40 ------- 1 3.0 0.0 18 49
r 1.303856 2 1 ack 40 ------- 1 3.0 0.0 19 50
+ 1.303856 1 0 ack 40 ------- 1 3.0 0.0 19 50
- 1.303856 1 0 ack 40 ------- 1 3.0 0.0 19 50
r 1.304688 2 1 ack 40 ------- 1 3.0 0.0 20 51
+ 1.304688 1 0 ack 40 ------- 1 3.0 0.0 20 51
- 1.304688 1 0 ack 40 ------- 1 3.0 0.0 20 51
r 1.30552 2 1 ack 40 ------- 1 3.0 0.0 21 52
+ 1.30552 1 0 ack 40 ------- 1 3.0 0.0 21 52
- 1.30552 1 0 ack 40 ------- 1 3.0 0.0 21 52
r 1.306352 2 1 ack 40 ------- 1 3.0 0.0 22 53
+ 1.306352 1 0 ack 40 ------- 1 3.0 0.0 22 53
- 1.306352 1 0 ack 40 ------- 1 3.0 0.0 22 53
r 1.307184 2 1 ack 40 ------- 1 3.0 0.0 23 54
+ 1.307184 1 0 ack 40 ------- 1 3.0 0.0 23 54
- 1.307184 1 0 ack 40 ------- 1 3.0 0.0 23 54
r 1.308016 2 1 ack 40 ------- 1 3.0 0.0 24 55
+ 1.308016 1 0 ack 40 ------- 1 3.0 0.0 24 55
- 1.308016 1 0 ack 40 ------- 1 3.0 0.0 24 55
r 1.308848 2 1 ack 40 ------- 1 3.0 0.0 25 56
+ 1.308848 1 0 ack 40 ------- 1 3.0 0.0 25 56
- 1.308848 1 0 ack 40 ------- 1 3.0 0.0 25 56
r 1.30968 2 1 ack 40 ------- 1 3.0 0.0 26 57
+ 1.30968 1 0 ack 40 ------- 1 3.0 0.0 26 57
- 1.30968 1 0 ack 40 ------- 1 3.0 0.0 26 57
r 1.310512 2 1 ack 40 ------- 1 3.0 0.0 27 58
+ 1.310512 1 0 ack 40 ------- 1 3.0 0.0 27 58
- 1.310512 1 0 ack 40 ------- 1 3.0 0.0 27 58
r 1.31056 1 0 ack 40 ------- 1 3.0 0.0 15 46
+ 1.31056 0 1 tcp 1040 ------- 1 0.0 3.0 31 62
- 1.31056 0 1 tcp 1040 ------- 1 0.0 3.0 31 62
+ 1.31056 0 1 tcp 1040 ------- 1 0.0 3.0 32 63
r 1.311344 2 1 ack 40 ------- 1 3.0 0.0 28 59
+ 1.311344 1 0 ack 40 ------- 1 3.0 0.0 28 59
- 1.311344 1 0 ack 40 ------- 1 3.0 0.0 28 59
r 1.311392 1 0 ack 40 ------- 1 3.0 0.0 16 47
+ 1.311392 0 1 tcp 1040 ------- 1 0.0 3.0 33 64
+ 1.311392 0 1 tcp 1040 ------- 1 0.0 3.0 34 65
- 1.311392 0 1 tcp 1040 ------- 1 0.0 3.0 32 63
r 1.312176 2 1 ack 40 ------- 1 3.0 0.0 29 60
+ 1.312176 1 0 ack 40 ------- 1 3.0 0.0 29 60
- 1.312176 1 0 ack 40 ------- 1 3.0 0.0 29 60
r 1.312224 1 0 ack 40 ------- 1 3.0 0.0 17 48
+ 1.312224 0 1 tcp 1040 ------- 1 0.0 3.0 35 66
+ 1.312224 0 1 tcp 1040 ------- 1 0.0 3.0 36 67
- 1.312224 0 1 tcp 1040 ------- 1 0.0 3.0 33 64
r 1.313008 2 1 ack 40 ------- 1 3.0 0.0 30 61
+ 1.313008 1 0 ack 40 ------- 1 3.0 0.0 30 61
- 1.313008 1 0 ack 40 ------- 1 3.0 0.0 30 61
r 1.313056 1 0 ack 40 ------- 1 3.0 0.0 18 49
+ 1.313056 0 1 tcp 1040 ------- 1 0.0 3.0 37 68
+ 1.313056 0 1 tcp 1040 ------- 1 0.0 3.0 38 69
- 1.313056 0 1 tcp 1040 ------- 1 0.0 3.0 34 65
r 1.313888 1 0 ack 40 ------- 1 3.0 0.0 19 50
+ 1.313888 0 1 tcp 1040 ------- 1 0.0 3.0 39 70
- 1.313888 0 1 tcp 1040 ------- 1 0.0 3.0 35 66
r 1.31472 1 0 ack 40 ------- 1 3.0 0.0 20 51
+ 1.31472 0 1 tcp 1040 ------- 1 0.0 3.0 40 71
- 1.31472 0 1 tcp 1040 ------- 1 0.0 3.0 36 67
r 1.315552 1 0 ack 40 ------- 1 3.0 0.0 21 52
+ 1.315552 0 1 tcp 1040 ------- 1 0.0 3.0 41 72
- 1.315552 0 1 tcp 1040 ------- 1 0.0 3.0 37 68
r 1.316384 1 0 ack 40 ------- 1 3.0 0.0 22 53
+ 1.316384 0 1 tcp 1040 ------- 1 0.0 3.0 42 73
- 1.316384 0 1 tcp 1040 ------- 1 0.0 3.0 38 69
r 1.317216 1 0 ack 40 ------- 1 3.0 0.0 23 54
+ 1.317216 0 1 tcp 1040 ------- 1 0.0 3.0 43 74
- 1.317216 0 1 tcp 1040 ------- 1 0.0 3.0 39 70
r 1.318048 1 0 ack 40 ------- 1 3.0 0.0 24 55
+ 1.318048 0 1 tcp 1040 ------- 1 0.0 3.0 44 75
- 1.318048 0 1 tcp 1040 ------- 1 0.0 3.0 40 71
r 1.31888 1 0 ack 40 ------- 1 3.0 0.0 25 56
+ 1.31888 0 1 tcp 1040 ------- 1 0.0 3.0 45 76
- 1.31888 0 1 tcp 1040 ------- 1 0.0 3.0 41 72
r 1.319712 1 0 ack 40 ------- 1 3.0 0.0 26 57
+ 1.319712 0 1 tcp 1040 ------- 1 0.0 3.0 46 77
- 1.319712 0 1 tcp 1040 ------- 1 0.0 3.0 42 73
r 1.320544 1 0 ack 40 ------- 1 3.0 0.0 27 58
+ 1.320544 0 1 tcp 1040 ------- 1 0.0 3.0 47 78
- 1.320544 0 1 tcp 1040 ------- 1 0.0 3.0 43 74
r 1.321376 1 0 ack 40 ------- 1 3.0 0.0 28 59
+ 1.321376 0 1 tcp 1040 ------- 1 0.0 3.0 48 79
- 1.321376 0 1 tcp 1040 ------- 1 0.0 3.0 44 75
r 1.321392 0 1 tcp 1040 ------- 1 0.0 3.0 31 62
+ 1.321392 1 2 tcp 1040 ------- 1 0.0 3.0 31 62
- 1.321392 1 2 tcp 1040 ------- 1 0.0 3.0 31 62
r 1.322208 1 0 ack 40 ------- 1 3.0 0.0 29 60
+ 1.322208 0 1 tcp 1040 ------- 1 0.0 3.0 49 80
- 1.322208 0 1 tcp 1040 ------- 1 0.0 3.0 45 76
r 1.322224 0 1 tcp 1040 ------- 1 0.0 3.0 32 63
+ 1.322224 1 2 tcp 1040 ------- 1 0.0 3.0 32 63
- 1.322224 1 2 tcp 1040 ------- 1 0.0 3.0 32 63
r 1.32304 1 0 ack 40 ------- 1 3.0 0.0 30 61
+ 1.32304 0 1 tcp 1040 ------- 1 0.0 3.0 50 81
- 1.32304 0 1 tcp 1040 ------- 1 0.0 3.0 46 77
r 1.323056 0 1 tcp 1040 ------- 1 0.0 3.0 33 64
+ 1.323056 1 2 tcp 1040 ------- 1 0.0 3.0 33 64
- 1.323056 1 2 tcp 1040 ------- 1 0.0 3.0 33 64
- 1.323872 0 1 tcp 1040 ------- 1 0.0 3.0 47 78
r 1.323888 0 1 tcp 1040 ------- 1 0.0 3.0 34 65
+ 1.323888 1 2 tcp 1040 ------- 1 0.0 3.0 34 65
- 1.323888 1 2 tcp 1040 ------- 1 0.0 3.0 34 65
- 1.324704 0 1 tcp 1040 ------- 1 0.0 3.0 48 79
r 1.32472 0 1 tcp 1040 ------- 1 0.0 3.0 35 66
+ 1.32472 1 2 tcp 1040 ------- 1 0.0 3.0 35 66
- 1.32472 1 2 tcp 1040 ------- 1 0.0 3.0 35 66
- 1.325536 0 1 tcp 1040 ------- 1 0.0 3.0 49 80
r 1.325552 0 1 tcp 1040 ------- 1 0.0 3.0 36 67
+ 1.325552 1 2 tcp 1040 ------- 1 0.0 3.0 36 67
- 1.325552 1 2 tcp 1040 ------- 1 0.0 3.0 36 67
- 1.326368 0 1 tcp 1040 ------- 1 0.0 3.0 50 81
r 1.326384 0 1 tcp 1040 ------- 1 0.0 3.0 37 68
+ 1.326384 1 2 tcp 1040 ------- 1 0.0 3.0 37 68
- 1.326384 1 2 tcp 1040 ------- 1 0.0 3.0 37 68
r 1.327216 0 1 tcp 1040 ------- 1 0.0 3.0 38 69
+ 1.327216 1 2 tcp 1040 ------- 1 0.0 3.0 38 69
- 1.327216 1 2 tcp 1040 ------- 1 0.0 3.0 38 69
r 1.328048 0 1 tcp 1040 ------- 1 0.0 3.0 39 70
+ 1.328048 1 2 tcp 1040 ------- 1 0.0 3.0 39 70
- 1.328048 1 2 tcp 1040 ------- 1 0.0 3.0 39 70
r 1.32888 0 1 tcp 1040 ------- 1 0.0 3.0 40 71
+ 1.32888 1 2 tcp 1040 ------- 1 0.0 3.0 40 71
- 1.32888 1 2 tcp 1040 ------- 1 0.0 3.0 40 71
r 1.329712 0 1 tcp 1040 ------- 1 0.0 3.0 41 72
+ 1.329712 1 2 tcp 1040 ------- 1 0.0 3.0 41 72
- 1.329712 1 2 tcp 1040 ------- 1 0.0 3.0 41 72
r 1.330544 0 1 tcp 1040 ------- 1 0.0 3.0 42 73
+ 1.330544 1 2 tcp 1040 ------- 1 0.0 3.0 42 73
- 1.330544 1 2 tcp 1040 ------- 1 0.0 3.0 42 73
r 1.331376 0 1 tcp 1040 ------- 1 0.0 3.0 43 74
+ 1.331376 1 2 tcp 1040 ------- 1 0.0 3.0 43 74
- 1.331376 1 2 tcp 1040 ------- 1 0.0 3.0 43 74
r 1.332208 0 1 tcp 1040 ------- 1 0.0 3.0 44 75
+ 1.332208 1 2 tcp 1040 ------- 1 0.0 3.0 44 75
- 1.332208 1 2 tcp 1040 ------- 1 0.0 3.0 44 75
r 1.332224 1 2 tcp 1040 ------- 1 0.0 3.0 31 62
+ 1.332224 2 3 tcp 1040 ------- 1 0.0 3.0 31 62
- 1.332224 2 3 tcp 1040 ------- 1 0.0 3.0 31 62
r 1.33304 0 1 tcp 1040 ------- 1 0.0 3.0 45 76
+ 1.33304 1 2 tcp 1040 ------- 1 0.0 3.0 45 76
- 1.33304 1 2 tcp 1040 ------- 1 0.0 3.0 45 76