V -t * -v 1.0a5 -a 0
A -t * -n 1 -p 0 -o 0xffffffff -c 31 -a 1
A -t * -h 1 -m 2147483647 -s 0
c -t * -i 1 -n Blue
c -t * -i 2 -n Red
n -t * -a 0 -s 0 -S UP -v circle -c black -i black
n -t * -a 1 -s 1 -S UP -v circle -c black -i black
n -t * -a 2 -s 2 -S UP -v circle -c black -i black
n -t * -a 3 -s 3 -S UP -v circle -c black -i black
l -t * -s 0 -d 1 -S UP -r 10000000 -D 0.01 -c black -o right
l -t * -s 1 -d 2 -S UP -r 10000000 -D 0.01 -c black -o right
l -t * -s 2 -d 3 -S UP -r 10000000 -D 0.01 -c black -o right
q -t * -s 2 -d 1 -a 0.5
q -t * -s 1 -d 2 -a 0.5
q -t * -s 1 -d 0 -a 0.5
q -t * -s 0 -d 1 -a 0.5
+ -t 1 -s 0 -d 1 -p tcp -e 40 -c 1 -i 0 -a 1 -x {0.0 3.0 0 ------- null}
- -t 1 -s 0 -d 1 -p tcp -e 40 -c 1 -i 0 -a 1 -x {0.0 3.0 0 ------- null}
h -t 1 -s 0 -d 1 -p tcp -e 40 -c 1 -i 0 -a 1 -x {0.0 3.0 -1 ------- null}
r -t 1.010032 -s 0 -d 1 -p tcp -e 40 -c 1 -i 0 -a 1 -x {0.0 3.0 0 ------- null}
d -t 1.010032 -s 1 -d 2 -p tcp -e 40 -c 1 -i 0 -a 1 -x {0.0 3.0 0 ------- null}
+ -t 4 -s 0 -d 1 -p tcp -e 40 -c 1 -i 1 -a 1 -x {0.0 3.0 0 ---A--- null}
- -t 4 -s 0 -d 1 -p tcp -e 40 -c 1 -i 1 -a 1 -x {0.0 3.0 0 ---A--- null}
h -t 4 -s 0 -d 1 -p tcp -e 40 -c 1 -i 1 -a 1 -x {0.0 3.0 -1 ---A--- null}
r -t 4.010032 -s 0 -d 1 -p tcp -e 40 -c 1 -i 1 -a 1 -x {0.0 3.0 0 ---A--- null}
d -t 4.010032 -s 1 -d 2 -p tcp -e 40 -c 1 -i 1 -a 1 -x {0.0 3.0 0 ---A--- null}
+ -t 10 -s 0 -d 1 -p tcp -e 40 -c 1 -i 2 -a 1 -x {0.0 3.0 0 ---A--- null}
- -t 10 -s 0 -d 1 -p tcp -e 40 -c 1 -i 2 -a 1 -x {0.0 3.0 0 ---A--- null}
h -t 10 -s 0 -d 1 -p tcp -e 40 -c 1 -i 2 -a 1 -x {0.0 3.0 -1 ---A--- null}
r -t 10.010032 -s 0 -d 1 -p tcp -e 40 -c 1 -i 2 -a 1 -x {0.0 3.0 0 ---A--- null}
+ -t 10.010032 -s 1 -d 2 -p tcp -e 40 -c 1 -i 2 -a 1 -x {0.0 3.0 0 ---A--- null}
- -t 10.010032 -s 1 -d 2 -p tcp -e 40 -c 1 -i 2 -a 1 -x {0.0 3.0 0 ---A--- null}
h -t 10.010032 -s 1 -d 2 -p tcp -e 40 -c 1 -i 2 -a 1 -x {0.0 3.0 -1 ---A--- null}
r -t 10.020064 -s 1 -d 2 -p tcp -e 40 -c 1 -i 2 -a 1 -x {0.0 3.0 0 ---A--- null}
+ -t 10.020064 -s 2 -d 3 -p tcp -e 40 -c 1 -i 2 -a 1 -x {0.0 3.0 0 ---A--- null}
- -t 10.020064 -s 2 -d 3 -p tcp -e 40 -c 1 -i 2 -a 1 -x {0.0 3.0 0 ---A--- null}
h -t 10.020064 -s 2 -d 3 -p tcp -e 40 -c 1 -i 2 -a 1 -x {0.0 3.0 -1 ---A--- null}
r -t 10.030096 -s 2 -d 3 -p tcp -e 40 -c 1 -i 2 -a 1 -x {0.0 3.0 0 ---A--- null}
+ -t 10.030096 -s 3 -d 2 -p ack -e 40 -c 1 -i 3 -a 1 -x {3.0 0.0 0 ------- null}
- -t 10.030096 -s 3 -d 2 -p ack -e 40 -c 1 -i 3 -a 1 -x {3.0 0.0 0 ------- null}
h -t 10.030096 -s 3 -d 2 -p ack -e 40 -c 1 -i 3 -a 1 -x {3.0 0.0 -1 ------- null}
r -t 10.040128 -s 3 -d 2 -p ack -e 40 -c 1 -i 3 -a 1 -x {3.0 0.0 0 ------- null}
+ -t 10.040128 -s 2 -d 1 -p ack -e 40 -c 1 -i 3 -a 1 -x {3.0 0.0 0 ------- null}
- -t 10.040128 -s 2 -d 1 -p ack -e 40 -c 1 -i 3 -a 1 -x {3.0 0.0 0 ------- null}
h -t 10.040128 -s 2 -d 1 -p ack -e 40 -c 1 -i 3 -a 1 -x {3.0 0.0 -1 ------- null}
r -t 10.05016 -s 2 -d 1 -p ack -e 40 -c 1 -i 3 -a 1 -x {3.0 0.0 0 ------- null}
+ -t 10.05016 -s 1 -d 0 -p ack -e 40 -c 1 -i 3 -a 1 -x {3.0 0.0 0 ------- null}
- -t 10.05016 -s 1 -d 0 -p ack -e 40 -c 1 -i 3 -a 1 -x {3.0 0.0 0 ------- null}
h -t 10.05016 -s 1 -d 0 -p ack -e 40 -c 1 -i 3 -a 1 -x {3.0 0.0 -1 ------- null}
r -t 10.060192 -s 1 -d 0 -p ack -e 40 -c 1 -i 3 -a 1 -x {3.0 0.0 0 ------- null}
+ -t 10.060192 -s 0 -d 1 -p tcp -e 1040 -c 1 -i 4 -a 1 -x {0.0 3.0 1 ------- null}
- -t 10.060192 -s 0 -d 1 -p tcp -e 1040 -c 1 -i 4 -a 1 -x {0.0 3.0 1 ------- null}
h -t 10.060192 -s 0 -d 1 -p tcp -e 1040 -c 1 -i 4 -a 1 -x {0.0 3.0 -1 ------- null}
r -t 10.071024 -s 0 -d 1 -p tcp -e 1040 -c 1 -i 4 -a 1 -x {0.0 3.0 1 ------- null}
+ -t 10.071024 -s 1 -d 2 -p tcp -e 1040 -c 1 -i 4 -a 1 -x {0.0 3.0 1 ------- null}
- -t 10.071024 -s 1 -d 2 -p tcp -e 1040 -c 1 -i 4 -a 1 -x {0.0 3.0 1 ------- null}
h -t 10.071024 -s 1 -d 2 -p tcp -e 1040 -c 1 -i 4 -a 1 -x {0.0 3.0 -1 ------- null}
r -t 10.081856 -s 1 -d 2 -p tcp -e 1040 -c 1 -i 4 -a 1 -x {0.0 3.0 1 ------- null}
+ -t 10.081856 -s 2 -d 3 -p tcp -e 1040 -c 1 -i 4 -a 1 -x {0.0 3.0 1 ------- null}
- -t 10.081856 -s 2 -d 3 -p tcp -e 1040 -c 1 -i 4 -a 1 -x {0.0 3.0 1 ------- null}
h -t 10.081856 -s 2 -d 3 -p tcp -e 1040 -c 1 -i 4 -a 1 -x {0.0 3.0 -1 ------- null}
r -t 10.092688 -s 2 -d 3 -p tcp -e 1040 -c 1 -i 4 -a 1 -x {0.0 3.0 1 ------- null}
+ -t 10.092688 -s 3 -d 2 -p ack -e 40 -c 1 -i 5 -a 1 -x {3.0 0.0 1 ------- null}
- -t 10.092688 -s 3 -d 2 -p ack -e 40 -c 1 -i 5 -a 1 -x {3.0 0.0 1 ------- null}
h -t 10.092688 -s 3 -d 2 -p ack -e 40 -c 1 -i 5 -a 1 -x {3.0 0.0 -1 ------- null}
r -t 10.10272 -s 3 -d 2 -p ack -e 40 -c 1 -i 5 -a 1 -x {3.0 0.0 1 ------- null}
+ -t 10.10272 -s 2 -d 1 -p ack -e 40 -c 1 -i 5 -a 1 -x {3.0 0.0 1 ------- null}
- -t 10.10272 -s 2 -d 1 -p ack -e 40 -c 1 -i 5 -a 1 -x {3.0 0.0 1 ------- null}
h -t 10.10272 -s 2 -d 1 -p ack -e 40 -c 1 -i 5 -a 1 -x {3.0 0.0 -1 ------- null}
r -t 10.112752 -s 2 -d 1 -p ack -e 40 -c 1 -i 5 -a 1 -x {3.0 0.0 1 ------- null}
+ -t 10.112752 -s 1 -d 0 -p ack -e 40 -c 1 -i 5 -a 1 -x {3.0 0.0 1 ------- null}
- -t 10.112752 -s 1 -d 0 -p ack -e 40 -c 1 -i 5 -a 1 -x {3.0 0.0 1 ------- null}
h -t 10.112752 -s 1 -d 0 -p ack -e 40 -c 1 -i 5 -a 1 -x {3.0 0.0 -1 ------- null}
r -t 10.122784 -s 1 -d 0 -p ack -e 40 -c 1 -i 5 -a 1 -x {3.0 0.0 1 ------- null}
+ -t 10.122784 -s 0 -d 1 -p tcp -e 1040 -c 1 -i 6 -a 1 -x {0.0 3.0 2 ------- null}
- -t 10.122784 -s 0 -d 1 -p tcp -e 1040 -c 1 -i 6 -a 1 -x {0.0 3.0 2 ------- null}
h -t 10.122784 -s 0 -d 1 -p tcp -e 1040 -c 1 -i 6 -a 1 -x {0.0 3.0 -1 ------- null}
+ -t 10.122784 -s 0 -d 1 -p tcp -e 1040 -c 1 -i 7 -a 1 -x {0.0 3.0 3 ------- null}
- -t 10.123616 -s 0 -d 1 -p tcp -e 1040 -c 1 -i 7 -a 1 -x {0.0 3.0 3 ------- null}
h -t 10.123616 -s 0 -d 1 -p tcp -e 1040 -c 1 -i 7 -a 1 -x {0.0 3.0 -1 ------- null}
r -t 10.133616 -s 0 -d 1 -p tcp -e 1040 -c 1 -i 6 -a 1 -x {0.0 3.0 2 ------- null}
+ -t 10.133616 -s 1 -d 2 -p tcp -e 1040 -c 1 -i 6 -a 1 -x {0.0 3.0 2 ------- null}
- -t 10.133616 -s 1 -d 2 -p tcp -e 1040 -c 1 -i 6 -a 1 -x {0.0 3.0 2 ------- null}
h -t 10.133616 -s 1 -d 2 -p tcp -e 1040 -c 1 -i 6 -a 1 -x {0.0 3.0 -1 ------- null}
r -t 10.134448 -s 0 -d 1 -p tcp -e 1040 -c 1 -i 7 -a 1 -x {0.0 3.0 3 ------- null}
+ -t 10.134448 -s 1 -d 2 -p tcp -e 1040 -c 1 -i 7 -a 1 -x {0.0 3.0 3 ------- null}
- -t 10.134448 -s 1 -d 2 -p tcp -e 1040 -c 1 -i 7 -a 1 -x {0.0 3.0 3 ------- null}
h -t 10.134448 -s 1 -d 2 -p tcp -e 1040 -c 1 -i 7 -a 1 -x {0.0 3.0 -1 ------- null}
r -t 10.144448 -s 1 -d 2 -p tcp -e 1040 -c 1 -i 6 -a 1 -x {0.0 3.0 2 ------- null}
+ -t 10.144448 -s 2 -d 3 -p tcp -e 1040 -c 1 -i 6 -a 1 -x {0.0 3.0 2 ------- null}
- -t 10.144448 -s 2 -d 3 -p tcp -e 1040 -c 1 -i 6 -a 1 -x {0.0 3.0 2 ------- null}
h -t 10.144448 -s 2 -d 3 -p tcp -e 1040 -c 1 -i 6 -a 1 -x {0.0 3.0 -1 ------- null}
r -t 10.14528 -s 1 -d 2 -p tcp -e 1040 -c 1 -i 7 -a 1 -x {0.0 3.0 3 ------- null}
+ -t 10.14528 -s 2 -d 3 -p tcp -e 1040 -c 1 -i 7 -a 1 -x {0.0 3.0 3 ------- null}
- -t 10.14528 -s 2 -d 3 -p tcp -e 1040 -c 1 -i 7 -a 1 -x {0.0 3.0 3 ------- null}
h -t 10.14528 -s 2 -d 3 -p tcp -e 1040 -c 1 -i 7 -a 1 -x {0.0 3.0 -1 ------- null}
r -t 10.15528 -s 2 -d 3 -p tcp -e 1040 -c 1 -i 6 -a 1 -x {0.0 3.0 2 ------- null}
+ -t 10.15528 -s 3 -d 2 -p ack -e 40 -c 1 -i 8 -a 1 -x {3.0 0.0 2 ------- null}
- -t 10.15528 -s 3 -d 2 -p ack -e 40 -c 1 -i 8 -a 1 -x {3.0 0.0 2 ------- null}
h -t 10.15528 -s 3 -d 2 -p ack -e 40 -c 1 -i 8 -a 1 -x {3.0 0.0 -1 ------- null}
r -t 10.156112 -s 2 -d 3 -p tcp -e 1040 -c 1 -i 7 -a 1 -x {0.0 3.0 3 ------- null}
+ -t 10.156112 -s 3 -d 2 -p ack -e 40 -c 1 -i 9 -a 1 -x {3.0 0.0 3 ------- null}
- -t 10.156112 -s 3 -d 2 -p ack -e 40 -c 1 -i 9 -a 1 -x {3.0 0.0 3 ------- null}
h -t 10.156112 -s 3 -d 2 -p ack -e 40 -c 1 -i 9 -a 1 -x {3.0 0.0 -1 ------- null}
r -t 10.165312 -s 3 -d 2 -p ack -e 40 -c 1 -i 8 -a 1 -x {3.0 0.0 2 ------- null}
+ -t 10.165312 -s 2 -d 1 -p ack -e 40 -c 1 -i 8 -a 1 -x {3.0 0.0 2 ------- null}
- -t 10.165312 -s 2 -d 1 -p ack -e 40 -c 1 -i 8 -a 1 -x {3.0 0.0 2 ------- null}
h -t 10.165312 -s 2 -d 1 -p ack -e 40 -c 1 -i 8 -a 1 -x {3.0 0.0 -1 ------- null}
r -t 10.166144 -s 3 -d 2 -p ack -e 40 -c 1 -i 9 -a 1 -x {3.0 0.0 3 ------- null}
+ -t 10.166144 -s 2 -d 1 -p ack -e 40 -c 1 -i 9 -a 1 -x {3.0 0.0 3 ------- null}
- -t 10.166144 -s 2 -d 1 -p ack -e 40 -c 1 -i 9 -a 1 -x {3.0 0.0 3 ------- null}
h -t 10.166144 -s 2 -d 1 -p ack -e 40 -c 1 -i 9 -a 1 -x {3.0 0.0 -1 ------- null}
r -t 10.175344 -s 2 -d 1 -p ack -e 40 -c 1 -i 8 -a 1 -x {3.0 0.0 2 ------- null}
+ -t 10.175344 -s 1 -d 0 -p ack -e 40 -c 1 -i 8 -a 1 -x {3.0 0.0 2 ------- null}
- -t 10.175344 -s 1 -d 0 -p ack -e 40 -c 1 -i 8 -a 1 -x {3.0 0.0 2 ------- null}
h -t 10.175344 -s 1 -d 0 -p ack -e 40 -c 1 -i 8 -a 1 -x {3.0 0.0 -1 ------- null}
r -t 10.176176 -s 2 -d 1 -p ack -e 40 -c 1 -i 9 -a 1 -x {3.0 0.0 3 ------- null}
+ -t 10.176176 -s 1 -d 0 -p ack -e 40 -c 1 -i 9 -a 1 -x {3.0 0.0 3 ------- null}
- -t 10.176176 -s 1 -d 0 -p ack -e 40 -c 1 -i 9 -a 1 -x {3.0 0.0 3 ------- null}
h -t 10.176176 -s 1 -d 0 -p ack -e 40 -c 1 -i 9 -a 1 -x {3.0 0.0 -1 ------- null}
r -t 10.185376 -s 1 -d 0 -p ack -e 40 -c 1 -i 8 -a 1 -x {3.0 0.0 2 ------- null}
+ -t 10.185376 -s 0 -d 1 -p tcp -e 1040 -c 1 -i 10 -a 1 -x {0.0 3.0 4 ------- null}
- -t 10.185376 -s 0 -d 1 -p tcp -e 1040 -c 1 -i 10 -a 1 -x {0.0 3.0 4 ------- null}
h -t 10.185376 -s 0 -d 1 -p tcp -e 1040 -c 1 -i 10 -a 1 -x {0.0 3.0 -1 ------- null}
r -t 10.186208 -s 1 -d 0 -p ack -e 40 -c 1 -i 9 -a 1 -x {3.0 0.0 3 ------- null}
+ -t 10.186208 -s 0 -d 1 -p tcp -e 1040 -c 1 -i 11 -a 1 -x {0.0 3.0 5 ------- null}
- -t 10.186208 -s 0 -d 1 -p tcp -e 1040 -c 1 -i 11 -a 1 -x {0.0 3.0 5 ------- null}
h -t 10.186208 -s 0 -d 1 -p tcp -e 1040 -c 1 -i 11 -a 1 -x {0.0 3.0 -1 ------- null}
r -t 10.196208 -s 0 -d 1 -p tcp -e 1040 -c 1 -i 10 -a 1 -x {0.0 3.0 4 ------- null}
+ -t 10.196208 -s 1 -d 2 -p tcp -e 1040 -c 1 -i 10 -a 1 -x {0.0 3.0 4 ------- null}
- -t 10.196208 -s 1 -d 2 -p tcp -e 1040 -c 1 -i 10 -a 1 -x {0.0 3.0 4 ------- null}
h -t 10.196208 -s 1 -d 2 -p tcp -e 1040 -c 1 -i 10 -a 1 -x {0.0 3.0 -1 ------- null}
r -t 10.19704 -s 0 -d 1 -p tcp -e 1040 -c 1 -i 11 -a 1 -x {0.0 3.0 5 ------- null}
+ -t 10.19704 -s 1 -d 2 -p tcp -e 1040 -c 1 -i 11 -a 1 -x {0.0 3.0 5 ------- null}
- -t 10.19704 -s 1 -d 2 -p tcp -e 1040 -c 1 -i 11 -a 1 -x {0.0 3.0 5 ------- null}
h -t 10.19704 -s 1 -d 2 -p tcp -e 1040 -c 1 -i 11 -a 1 -x {0.0 3.0 -1 ------- null}
r -t 10.20704 -s 1 -d 2 -p tcp -e 1040 -c 1 -i 10 -a 1 -x {0.0 3.0 4 ------- null}
+ -t 10.20704 -s 2 -d 3 -p tcp -e 1040 -c 1 -i 10 -a 1 -x {0.0 3.0 4 ------- null}
- -t 10.20704 -s 2 -d 3 -p tcp -e 1040 -c 1 -i 10 -a 1 -x {0.0 3.0 4 ------- null}
h -t 10.20704 -s 2 -d 3 -p tcp -e 1040 -c 1 -i 10 -a 1 -x {0.0 3.0 -1 ------- null}
r -t 10.207872 -s 1 -d 2 -p tcp -e 1040 -c 1 -i 11 -a 1 -x {0.0 3.0 5 ------- null}
+ -t 10.207872 -s 2 -d 3 -p tcp -e 1040 -c 1 -i 11 -a 1 -x {0.0 3.0 5 ------- null}
- -t 10.207872 -s 2 -d 3 -p tcp -e 1040 -c 1 -i 11 -a 1 -x {0.0 3.0 5 ------- null}
h -t 10.207872 -s 2 -d 3 -p tcp -e 1040 -c 1 -i 11 -a 1 -x {0.0 3.0 -1 ------- null}
r -t 10.217872 -s 2 -d 3 -p tcp -e 1040 -c 1 -i 10 -a 1 -x {0.0 3.0 4 ------- null}
+ -t 10.217872 -s 3 -d 2 -p ack -e 40 -c 1 -i 12 -a 1 -x {3.0 0.0 4 ------- null}
- -t 10.217872 -s 3 -d 2 -p ack -e 40 -c 1 -i 12 -a 1 -x {3.0 0.0 4 ------- null}
h -t 10.217872 -s 3 -d 2 -p ack -e 40 -c 1 -i 12 -a 1 -x {3.0 0.0 -1 ------- null}
r -t 10.218704 -s 2 -d 3 -p tcp -e 1040 -c 1 -i 11 -a 1 -x {0.0 3.0 5 ------- null}
+ -t 10.218704 -s 3 -d 2 -p ack -e 40 -c 1 -i 13 -a 1 -x {3.0 0.0 5 ------- null}
- -t 10.218704 -s 3 -d 2 -p ack -e 40 -c 1 -i 13 -a 1 -x {3.0 0.0 5 ------- null}
h -t 10.218704 -s 3 -d 2 -p ack -e 40 -c 1 -i 13 -a 1 -x {3.0 0.0 -1 ------- null}
r -t 10.227904 -s 3 -d 2 -p ack -e 40 -c 1 -i 12 -a 1 -x {3.0 0.0 4 ------- null}
+ -t 10.227904 -s 2 -d 1 -p ack -e 40 -c 1 -i 12 -a 1 -x {3.0 0.0 4 ------- null}
- -t 10.227904 -s 2 -d 1 -p ack -e 40 -c 1 -i 12 -a 1 -x {3.0 0.0 4 ------- null}
h -t 10.227904 -s 2 -d 1 -p ack -e 40 -c 1 -i 12 -a 1 -x {3.0 0.0 -1 ------- null}
r -t 10.228736 -s 3 -d 2 -p ack -e 40 -c 1 -i 13 -a 1 -x {3.0 0.0 5 ------- null}
+ -t 10.228736 -s 2 -d 1 -p ack -e 40 -c 1 -i 13 -a 1 -x {3.0 0.0 5 ------- null}
- -t 10.228736 -s 2 -d 1 -p ack -e 40 -c 1 -i 13 -a 1 -x {3.0 0.0 5 ------- null}
h -t 10.228736 -s 2 -d 1 -p ack -e 40 -c 1 -i 13 -a 1 -x {3.0 0.0 -1 ------- null}
r -t 10.237936 -s 2 -d 1 -p ack -e 40 -c 1 -i 12 -a 1 -x {3.0 0.0 4 ------- null}
+ -t 10.237936 -s 1 -d 0 -p ack -e 40 -c 1 -i 12 -a 1 -x {3.0 0.0 4 ------- null}
- -t 10.237936 -s 1 -d 0 -p ack -e 40 -c 1 -i 12 -a 1 -x {3.0 0.0 4 ------- null}
h -t 10.237936 -s 1 -d 0 -p ack -e 40 -c 1 -i 12 -a 1 -x {3.0 0.0 -1 ------- null}
r -t 10.238768 -s 2 -d 1 -p ack -e 40 -c 1 -i 13 -a 1 -x {3.0 0.0 5 ------- null}
+ -t 10.238768 -s 1 -d 0 -p ack -e 40 -c 1 -i 13 -a 1 -x {3.0 0.0 5 ------- null}
- -t 10.238768 -s 1 -d 0 -p ack -e 40 -c 1 -i 13 -a 1 -x {3.0 0.0 5 ------- null}
h -t 10.238768 -s 1 -d 0 -p ack -e 40 -c 1 -i 13 -a 1 -x {3.0 0.0 -1 ------- null}
r -t 10.247968 -s 1 -d 0 -p ack -e 40 -c 1 -i 12 -a 1 -x {3.0 0.0 4 ------- null}
+ -t 10.247968 -s 0 -d 1 -p tcp -e 1040 -c 1 -i 14 -a 1 -x {0.0 3.0 6 ------- null}
- -t 10.247968 -s 0 -d 1 -p tcp -e 1040 -c 1 -i 14 -a 1 -x {0.0 3.0 6 ------- null}
h -t 10.247968 -s 0 -d 1 -p tcp -e 1040 -c 1 -i 14 -a 1 -x {0.0 3.0 -1 ------- null}
+ -t 10.247968 -s 0 -d 1 -p tcp -e 1040 -c 1 -i 15 -a 1 -x {0.0 3.0 7 ------- null}
r -t 10.2488 -s 1 -d 0 -p ack -e 40 -c 1 -i 13 -a 1 -x {3.0 0.0 5 ------- null}
+ -t 10.2488 -s 0 -d 1 -p tcp -e 1040 -c 1 -i 16 -a 1 -x {0.0 3.0 8 ------- null}
- -t 10.2488 -s 0 -d 1 -p tcp -e 1040 -c 1 -i 15 -a 1 -x {0.0 3.0 7 ------- null}
h -t 10.2488 -s 0 -d 1 -p tcp -e 1040 -c 1 -i 15 -a 1 -x {0.0 3.0 -1 ------- null}
- -t 10.249632 -s 0 -d 1 -p tcp -e 1040 -c 1 -i 16 -a 1 -x {0.0 3.0 8 ------- null}
h -t 10.249632 -s 0 -d 1 -p tcp -e 1040 -c 1 -i 16 -a 1 -x {0.0 3.0 -1 ------- null}
r -t 10.2588 -s 0 -d 1 -p tcp -e 1040 -c 1 -i 14 -a 1 -x {0.0 3.0 6 ------- null}
+ -t 10.2588 -s 1 -d 2 -p tcp -e 1040 -c 1 -i 14 -a 1 -x {0.0 3.0 6 ------- null}
- -t 10.2588 -s 1 -d 2 -p tcp -e 1040 -c 1 -i 14 -a 1 -x {0.0 3.0 6 ------- null}
h -t 10.2588 -s 1 -d 2 -p tcp -e 1040 -c 1 -i 14 -a 1 -x {0.0 3.0 -1 ------- null}
r -t 10.259632 -s 0 -d 1 -p tcp -e 1040 -c 1 -i 15 -a 1 -x {0.0 3.0 7 ------- null}
+ -t 10.259632 -s 1 -d 2 -p tcp -e 1040 -c 1 -i 15 -a 1 -x {0.0 3.0 7 ------- null}
- -t 10.259632 -s 1 -d 2 -p tcp -e 1040 -c 1 -i 15 -a 1 -x {0.0 3.0 7 ------- null}
h -t 10.259632 -s 1 -d 2 -p tcp -e 1040 -c 1 -i 15 -a 1 -x {0.0 3.0 -1 ------- null}
r -t 10.260464 -s 0 -d 1 -p tcp -e 1040 -c 1 -i 16 -a 1 -x {0.0 3.0 8 ------- null}
+ -t 10.260464 -s 1 -d 2 -p tcp -e 1040 -c 1 -i 16 -a 1 -x {0.0 3.0 8 ------- null}
- -t 10.260464 -s 1 -d 2 -p tcp -e 1040 -c 1 -i 16 -a 1 -x {0.0 3.0 8 ------- null}
h -t 10.260464 -s 1 -d 2 -p tcp -e 1040 -c 1 -i 16 -a 1 -x {0.0 3.0 -1 ------- null}
r -t 10.269632 -s 1 -d 2 -p tcp -e 1040 -c 1 -i 14 -a 1 -x {0.0 3.0 6 ------- null}
+ -t 10.269632 -s 2 -d 3 -p tcp -e 1040 -c 1 -i 14 -a 1 -x {0.0 3.0 6 ------- null}
- -t 10.269632 -s 2 -d 3 -p tcp -e 1040 -c 1 -i 14 -a 1 -x {0.0 3.0 6 ------- null}
h -t 10.269632 -s 2 -d 3 -p tcp -e 1040 -c 1 -i 14 -a 1 -x {0.0 3.0 -1 ------- null}
r -t 10.270464 -s 1 -d 2 -p tcp -e 1040 -c 1 -i 15 -a 1 -x {0.0 3.0 7 ------- null}
+ -t 10.270464 -s 2 -d 3 -p tcp -e 1040 -c 1 -i 15 -a 1 -x {0.0 3.0 7 ------- null}
- -t 10.270464 -s 2 -d 3 -p tcp -e 1040 -c 1 -i 15 -a 1 -x {0.0 3.0 7 ------- null}
h -t 10.270464 -s 2 -d 3 -p tcp -e 1040 -c 1 -i 15 -a 1 -x {0.0 3.0 -1 ------- null}
r -t 10.271296 -s 1 -d 2 -p tcp -e 1040 -c 1 -i 16 -a 1 -x {0.0 3.0 8 ------- null}
+ -t 10.271296 -s 2 -d 3 -p tcp -e 1040 -c 1 -i 16 -a 1 -x {0.0 3.0 8 ------- null}
- -t 10.271296 -s 2 -d 3 -p tcp -e 1040 -c 1 -i 16 -a 1 -x {0.0 3.0 8 ------- null}
h -t 10.271296 -s 2 -d 3 -p tcp -e 1040 -c 1 -i 16 -a 1 -x {0.0 3.0 -1 ------- null}
r -t 10.280464 -s 2 -d 3 -p tcp -e 1040 -c 1 -i 14 -a 1 -x {0.0 3.0 6 ------- null}
+ -t 10.280464 -s 3 -d 2 -p ack -e 40 -c 1 -i 17 -a 1 -x {3.0 0.0 6 ------- null}
- -t 10.280464 -s 3 -d 2 -p ack -e 40 -c 1 -i 17 -a 1 -x {3.0 0.0 6 ------- null}
h -t 10.280464 -s 3 -d 2 -p ack -e 40 -c 1 -i 17 -a 1 -x {3.0 0.0 -1 ------- null}
r -t 10.281296 -s 2 -d 3 -p tcp -e 1040 -c 1 -i 15 -a 1 -x {0.0 3.0 7 ------- null}
+ -t 10.281296 -s 3 -d 2 -p ack -e 40 -c 1 -i 18 -a 1 -x {3.0 0.0 7 ------- null}
- -t 10.281296 -s 3 -d 2 -p ack -e 40 -c 1 -i 18 -a 1 -x {3.0 0.0 7 ------- null}
h -t 10.281296 -s 3 -d 2 -p ack -e 40 -c 1 -i 18 -a 1 -x {3.0 0.0 -1 ------- null}
r -t 10.282128 -s 2 -d 3 -p tcp -e 1040 -c 1 -i 16 -a 1 -x {0.0 3.0 8 ------- null}
+ -t 10.282128 -s 3 -d 2 -p ack -e 40 -c 1 -i 19 -a 1 -x {3.0 0.0 8 ------- null}
- -t 10.282128 -s 3 -d 2 -p ack -e 40 -c 1 -i 19 -a 1 -x {3.0 0.0 8 ------- null}
h -t 10.282128 -s 3 -d 2 -p ack -e 40 -c 1 -i 19 -a 1 -x {3.0 0.0 -1 ------- null}
r -t 10.290496 -s 3 -d 2 -p ack -e 40 -c 1 -i 17 -a 1 -x {3.0 0.0 6 ------- null}
+ -t 10.290496 -s 2 -d 1 -p ack -e 40 -c 1 -i 17 -a 1 -x {3.0 0.0 6 ------- null}
- -t 10.290496 -s 2 -d 1 -p ack -e 40 -c 1 -i 17 -a 1 -x {3.0 0.0 6 ------- null}
h -t 10.290496 -s 2 -d 1 -p ack -e 40 -c 1 -i 17 -a 1 -x {3.0 0.0 -1 ------- null}
r -t 10.291328 -s 3 -d 2 -p ack -e 40 -c 1 -i 18 -a 1 -x {3.0 0.0 7 ------- null}
+ -t 10.291328 -s 2 -d 1 -p ack -e 40 -c 1 -i 18 -a 1 -x {3.0 0.0 7 ------- null}
- -t 10.291328 -s 2 -d 1 -p ack -e 40 -c 1 -i 18 -a 1 -x {3.0 0.0 7 ------- null}
h -t 10.291328 -s 2 -d 1 -p ack -e 40 -c 1 -i 18 -a 1 -x {3.0 0.0 -1 ------- null}
r -t 10.29216 -s 3 -d 2 -p ack -e 40 -c 1 -i 19 -a 1 -x {3.0 0.0 8 ------- null}
+ -t 10.29216 -s 2 -d 1 -p ack -e 40 -c 1 -i 19 -a 1 -x {3.0 0.0 8 ------- null}
- -t 10.29216 -s 2 -d 1 -p ack -e 40 -c 1 -i 19 -a 1 -x {3.0 0.0 8 ------- null}
h -t 10.29216 -s 2 -d 1 -p ack -e 40 -c 1 -i 19 -a 1 -x {3.0 0.0 -1 ------- null}
r -t 10.300528 -s 2 -d 1 -p ack -e 40 -c 1 -i 17 -a 1 -x {3.0 0.0 6 ------- null}
+ -t 10.300528 -s 1 -d 0 -p ack -e 40 -c 1 -i 17 -a 1 -x {3.0 0.0 6 ------- null}
- -t 10.300528 -s 1 -d 0 -p ack -e 40 -c 1 -i 17 -a 1 -x {3.0 0.0 6 ------- null}
h -t 10.300528 -s 1 -d 0 -p ack -e 40 -c 1 -i 17 -a 1 -x {3.0 0.0 -1 ------- null}
r -t 10.30136 -s 2 -d 1 -p ack -e 40 -c 1 -i 18 -a 1 -x {3.0 0.0 7 ------- null}
+ -t 10.30136 -s 1 -d 0 -p ack -e 40 -c 1 -i 18 -a 1 -x {3.0 0.0 7 ------- null}
- -t 10.30136 -s 1 -d 0 -p ack -e 40 -c 1 -i 18 -a 1 -x {3.0 0.0 7 ------- null}
h -t 10.30136 -s 1 -d 0 -p ack -e 40 -c 1 -i 18 -a 1 -x {3.0 0.0 -1 ------- null}
r -t 10.302192 -s 2 -d 1 -p ack -e 40 -c 1 -i 19 -a 1 -x {3.0 0.0 8 ------- null}
+ -t 10.302192 -s 1 -d 0 -p ack -e 40 -c 1 -i 19 -a 1 -x {3.0 0.0 8 ------- null}
- -t 10.302192 -s 1 -d 0 -p ack -e 40 -c 1 -i 19 -a 1 -x {3.0 0.0 8 ------- null}
h -t 10.302192 -s 1 -d 0 -p ack -e 40 -c 1 -i 19 -a 1 -x {3.0 0.0 -1 ------- null}
r -t 10.31056 -s 1 -d 0 -p ack -e 40 -c 1 -i 17 -a 1 -x {3.0 0.0 6 ------- null}
+ -t 10.31056 -s 0 -d 1 -p tcp -e 1040 -c 1 -i 20 -a 1 -x {0.0 3.0 9 ------- null}
- -t 10.31056 -s 0 -d 1 -p tcp -e 1040 -c 1 -i 20 -a 1 -x {0.0 3.0 9 ------- null}
h -t 10.31056 -s 0 -d 1 -p tcp -e 1040 -c 1 -i 20 -a 1 -x {0.0 3.0 -1 ------- null}
r -t 10.311392 -s 1 -d 0 -p ack -e 40 -c 1 -i 18 -a 1 -x {3.0 0.0 7 ------- null}
+ -t 10.311392 -s 0 -d 1 -p tcp -e 1040 -c 1 -i 21 -a 1 -x {0.0 3.0 10 ------- null}
+ -t 10.311392 -s 0 -d 1 -p tcp -e 1040 -c 1 -i 22 -a 1 -x {0.0 3.0 11 ------- null}
- -t 10.311392 -s 0 -d 1 -p tcp -e 1040 -c 1 -i 21 -a 1 -x {0.0 3.0 10 ------- null}
h -t 10.311392 -s 0 -d 1 -p tcp -e 1040 -c 1 -i 21 -a 1 -x {0.0 3.0 -1 ------- null}
r -t 10.312224 -s 1 -d 0 -p ack -e 40 -c 1 -i 19 -a 1 -x {3.0 0.0 8 ------- null}
+ -t 10.312224 -s 0 -d 1 -p tcp -e 1040 -c 1 -i 23 -a 1 -x {0.0 3.0 12 ------- null}
- -t 10.312224 -s 0 -d 1 -p tcp -e 1040 -c 1 -i 22 -a 1 -x {0.0 3.0 11 ------- null}
h -t 10.312224 -s 0 -d 1 -p tcp -e 1040 -c 1 -i 22 -a 1 -x {0.0 3.0 -1 ------- null}
- -t 10.313056 -s 0 -d 1 -p tcp -e 1040 -c 1 -i 23 -a 1 -x {0.0 3.0 12 ------- null}
h -t 10.313056 -s 0 -d 1 -p tcp -e 1040 -c 1 -i 23 -a 1 -x {0.0 3.0 -1 ------- null}
r -t 10.321392 -s 0 -d 1 -p tcp -e 1040 -c 1 -i 20 -a 1 -x {0.0 3.0 9 ------- null}
d -t 10.321392 -s 1 -d 2 -p tcp -e 1040 -c 1 -i 20 -a 1 -x {0.0 3.0 9 ------- null}
r -t 10.322224 -s 0 -d 1 -p tcp -e 1040 -c 1 -i 21 -a 1 -x {0.0 3.0 10 ------- null}
+ -t 10.322224 -s 1 -d 2 -p tcp -e 1040 -c 1 -i 21 -a 1 -x {0.0 3.0 10 ------- null}
- -t 10.322224 -s 1 -d 2 -p tcp -e 1040 -c 1 -i 21 -a 1 -x {0.0 3.0 10 ------- null}
h -t 10.322224 -s 1 -d 2 -p tcp -e 1040 -c 1 -i 21 -a 1 -x {0.0 3.0 -1 ------- null}
r -t 10.323056 -s 0 -d 1 -p tcp -e 1040 -c 1 -i 22 -a 1 -x {0.0 3.0 11 ------- null}
+ -t 10.323056 -s 1 -d 2 -p tcp -e 1040 -c 1 -i 22 -a 1 -x {0.0 3.0 11 ------- null}
- -t 10.323056 -s 1 -d 2 -p tcp -e 1040 -c 1 -i 22 -a 1 -x {0.0 3.0 11 ------- null}
h -t 10.323056 -s 1 -d 2 -p tcp -e 1040 -c 1 -i 22 -a 1 -x {0.0 3.0 -1 ------- null}
r -t 10.323888 -s 0 -d 1 -p tcp -e 1040 -c 1 -i 23 -a 1 -x {0.0 3.0 12 ------- null}
+ -t 10.323888 -s 1 -d 2 -p tcp -e 1040 -c 1 -i 23 -a 1 -x {0.0 3.0 12 ------- null}
- -t 10.323888 -s 1 -d 2 -p tcp -e 1040 -c 1 -i 23 -a 1 -x {0.0 3.0 12 ------- null}
h -t 10.323888 -s 1 -d 2 -p tcp -e 1040 -c 1 -i 23 -a 1 -x {0.0 3.0 -1 ------- null}
r -t 10.333056 -s 1 -d 2 -p tcp -e 1040 -c 1 -i 21 -a 1 -x {0.0 3.0 10 ------- null}
+ -t 10.333056 -s 2 -d 3 -p tcp -e 1040 -c 1 -i 21 -a 1 -x {0.0 3.0 10 ------- null}
- -t 10.333056 -s 2 -d 3 -p tcp -e 1040 -c 1 -i 21 -a 1 -x {0.0 3.0 10 ------- null}
h -t 10.333056 -s 2 -d 3 -p tcp -e 1040 -c 1 -i 21 -a 1 -x {0.0 3.0 -1 ------- null}
r -t 10.333888 -s 1 -d 2 -p tcp -e 1040 -c 1 -i 22 -a 1 -x {0.0 3.0 11 ------- null}
+ -t 10.333888 -s 2 -d 3 -p tcp -e 1040 -c 1 -i 22 -a 1 -x {0.0 3.0 11 ------- null}
- -t 10.333888 -s 2 -d 3 -p tcp -e 1040 -c 1 -i 22 -a 1 -x {0.0 3.0 11 ------- null}
h -t 10.333888 -s 2 -d 3 -p tcp -e 1040 -c 1 -i 22 -a 1 -x {0.0 3.0 -1 ------- null}
r -t 10.33472 -s 1 -d 2 -p tcp -e 1040 -c 1 -i 23 -a 1 -x {0.0 3.0 12 ------- null}
+ -t 10.33472 -s 2 -d 3 -p tcp -e 1040 -c 1 -i 23 -a 1 -x {0.0 3.0 12 ------- null}
- -t 10.33472 -s 2 -d 3 -p tcp -e 1040 -c 1 -i 23 -a 1 -x {0.0 3.0 12 ------- null}
h -t 10.33472 -s 2 -d 3 -p tcp -e 1040 -c 1 -i 23 -a 1 -x {0.0 3.0 -1 ------- null}
r -t 10.343888 -s 2 -d 3 -p tcp -e 1040 -c 1 -i 21 -a 1 -x {0.0 3.0 10 ------- null}
+ -t 10.343888 -s 3 -d 2 -p ack -e 40 -c 1 -i 24 -a 1 -x {3.0 0.0 8 ------- null}
- -t 10.343888 -s 3 -d 2 -p ack -e 40 -c 1 -i 24 -a 1 -x {3.0 0.0 8 ------- null}
h -t 10.343888 -s 3 -d 2 -p ack -e 40 -c 1 -i 24 -a 1 -x {3.0 0.0 -1 ------- null}
r -t 10.34472 -s 2 -d 3 -p tcp -e 1040 -c 1 -i 22 -a 1 -x {0.0 3.0 11 ------- null}
+ -t 10.34472 -s 3 -d 2 -p ack -e 40 -c 1 -i 25 -a 1 -x {3.0 0.0 8 ------- null}
- -t 10.34472 -s 3 -d 2 -p ack -e 40 -c 1 -i 25 -a 1 -x {3.0 0.0 8 ------- null}
h -t 10.34472 -s 3 -d 2 -p ack -e 40 -c 1 -i 25 -a 1 -x {3.0 0.0 -1 ------- null}
r -t 10.345552 -s 2 -d 3 -p tcp -e 1040 -c 1 -i 23 -a 1 -x {0.0 3.0 12 ------- null}
+ -t 10.345552 -s 3 -d 2 -p ack -e 40 -c 1 -i 26 -a 1 -x {3.0 0.0 8 ------- null}
- -t 10.345552 -s 3 -d 2 -p ack -e 40 -c 1 -i 26 -a 1 -x {3.0 0.0 8 ------- null}
h -t 10.345552 -s 3 -d 2 -p ack -e 40 -c 1 -i 26 -a 1 -x {3.0 0.0 -1 ------- null}
r -t 10.35392 -s 3 -d 2 -p ack -e 40 -c 1 -i 24 -a 1 -x {3.0 0.0 8 ------- null}
+ -t 10.35392 -s 2 -d 1 -p ack -e 40 -c 1 -i 24 -a 1 -x {3.0 0.0 8 ------- null}
- -t 10.35392 -s 2 -d 1 -p ack -e 40 -c 1 -i 24 -a 1 -x {3.0 0.0 8 ------- null}
h -t 10.35392 -s 2 -d 1 -p ack -e 40 -c 1 -i 24 -a 1 -x {3.0 0.0 -1 ------- null}
r -t 10.354752 -s 3 -d 2 -p ack -e 40 -c 1 -i 25 -a 1 -x {3.0 0.0 8 ------- null}
+ -t 10.354752 -s 2 -d 1 -p ack -e 40 -c 1 -i 25 -a 1 -x {3.0 0.0 8 ------- null}
- -t 10.354752 -s 2 -d 1 -p ack -e 40 -c 1 -i 25 -a 1 -x {3.0 0.0 8 ------- null}
h -t 10.354752 -s 2 -d 1 -p ack -e 40 -c 1 -i 25 -a 1 -x {3.0 0.0 -1 ------- null}
r -t 10.355584 -s 3 -d 2 -p ack -e 40 -c 1 -i 26 -a 1 -x {3.0 0.0 8 ------- null}
+ -t 10.355584 -s 2 -d 1 -p ack -e 40 -c 1 -i 26 -a 1 -x {3.0 0.0 8 ------- null}
- -t 10.355584 -s 2 -d 1 -p ack -e 40 -c 1 -i 26 -a 1 -x {3.0 0.0 8 ------- null}
h -t 10.355584 -s 2 -d 1 -p ack -e 40 -c 1 -i 26 -a 1 -x {3.0 0.0 -1 ------- null}
r -t 10.363952 -s 2 -d 1 -p ack -e 40 -c 1 -i 24 -a 1 -x {3.0 0.0 8 ------- null}
+ -t 10.363952 -s 1 -d 0 -p ack -e 40 -c 1 -i 24 -a 1 -x {3.0 0.0 8 ------- null}
- -t 10.363952 -s 1 -d 0 -p ack -e 40 -c 1 -i 24 -a 1 -x {3.0 0.0 8 ------- null}
h -t 10.363952 -s 1 -d 0 -p ack -e 40 -c 1 -i 24 -a 1 -x {3.0 0.0 -1 ------- null}
r -t 10.364784 -s 2 -d 1 -p ack -e 40 -c 1 -i 25 -a 1 -x {3.0 0.0 8 ------- null}
+ -t 10.364784 -s 1 -d 0 -p ack -e 40 -c 1 -i 25 -a 1 -x {3.0 0.0 8 ------- null}
- -t 10.364784 -s 1 -d 0 -p ack -e 40 -c 1 -i 25 -a 1 -x {3.0 0.0 8 ------- null}
h -t 10.364784 -s 1 -d 0 -p ack -e 40 -c 1 -i 25 -a 1 -x {3.0 0.0 -1 ------- null}
r -t 10.365616 -s 2 -d 1 -p ack -e 40 -c 1 -i 26 -a 1 -x {3.0 0.0 8 ------- null}
+ -t 10.365616 -s 1 -d 0 -p ack -e 40 -c 1 -i 26 -a 1 -x {3.0 0.0 8 ------- null}
- -t 10.365616 -s 1 -d 0 -p ack -e 40 -c 1 -i 26 -a 1 -x {3.0 0.0 8 ------- null}
h -t 10.365616 -s 1 -d 0 -p ack -e 40 -c 1 -i 26 -a 1 -x {3.0 0.0 -1 ------- null}
r -t 10.373984 -s 1 -d 0 -p ack -e 40 -c 1 -i 24 -a 1 -x {3.0 0.0 8 ------- null}
+ -t 10.373984 -s 0 -d 1 -p tcp -e 1040 -c 1 -i 27 -a 1 -x {0.0 3.0 13 ------- null}
- -t 10.373984 -s 0 -d 1 -p tcp -e 1040 -c 1 -i 27 -a 1 -x {0.0 3.0 13 ------- null}
h -t 10.373984 -s 0 -d 1 -p tcp -e 1040 -c 1 -i 27 -a 1 -x {0.0 3.0 -1 ------- null}
r -t 10.374816 -s 1 -d 0 -p ack -e 40 -c 1 -i 25 -a 1 -x {3.0 0.0 8 ------- null}
+ -t 10.374816 -s 0 -d 1 -p tcp -e 1040 -c 1 -i 28 -a 1 -x {0.0 3.0 14 ------- null}
- -t 10.374816 -s 0 -d 1 -p tcp -e 1040 -c 1 -i 28 -a 1 -x {0.0 3.0 14 ------- null}
h -t 10.374816 -s 0 -d 1 -p tcp -e 1040 -c 1 -i 28 -a 1 -x {0.0 3.0 -1 ------- null}
r -t 10.375648 -s 1 -d 0 -p ack -e 40 -c 1 -i 26 -a 1 -x {3.0 0.0 8 ------- null}
+ -t 10.375648 -s 0 -d 1 -p tcp -e 1040 -c 1 -i 29 -a 1 -x {0.0 3.0 9 ------- null}
- -t 10.375648 -s 0 -d 1 -p tcp -e 1040 -c 1 -i 29 -a 1 -x {0.0 3.0 9 ------- null}
h -t 10.375648 -s 0 -d 1 -p tcp -e 1040 -c 1 -i 29 -a 1 -x {0.0 3.0 -1 ------- null}
r -t 10.384816 -s 0 -d 1 -p tcp -e 1040 -c 1 -i 27 -a 1 -x {0.0 3.0 13 ------- null}
+ -t 10.384816 -s 1 -d 2 -p tcp -e 1040 -c 1 -i 27 -a 1 -x {0.0 3.0 13 ------- null}
- -t 10.384816 -s 1 -d 2 -p tcp -e 1040 -c 1 -i 27 -a 1 -x {0.0 3.0 13 ------- null}
h -t 10.384816 -s 1 -d 2 -p tcp -e 1040 -c 1 -i 27 -a 1 -x {0.0 3.0 -1 ------- null}
r -t 10.385648 -s 0 -d 1 -p tcp -e 1040 -c 1 -i 28 -a 1 -x {0.0 3.0 14 ------- null}
+ -t 10.385648 -s 1 -d 2 -p tcp -e 1040 -c 1 -i 28 -a 1 -x {0.0 3.0 14 ------- null}
- -t 10.385648 -s 1 -d 2 -p tcp -e 1040 -c 1 -i 28 -a 1 -x {0.0 3.0 14 ------- null}
h -t 10.385648 -s 1 -d 2 -p tcp -e 1040 -c 1 -i 28 -a 1 -x {0.0 3.0 -1 ------- null}
r -t 10.38648 -s 0 -d 1 -p tcp -e 1040 -c 1 -i 29 -a 1 -x {0.0 3.0 9 ------- null}
d -t 10.38648 -s 1 -d 2 -p tcp -e 1040 -c 1 -i 29 -a 1 -x {0.0 3.0 9 ------- null}
r -t 10.395648 -s 1 -d 2 -p tcp -e 1040 -c 1 -i 27 -a 1 -x {0.0 3.0 13 ------- null}
+ -t 10.395648 -s 2 -d 3 -p tcp -e 1040 -c 1 -i 27 -a 1 -x {0.0 3.0 13 ------- null}
- -t 10.395648 -s 2 -d 3 -p tcp -e 1040 -c 1 -i 27 -a 1 -x {0.0 3.0 13 ------- null}
h -t 10.395648 -s 2 -d 3 -p tcp -e 1040 -c 1 -i 27 -a 1 -x {0.0 3.0 -1 ------- null}
r -t 10.39648 -s 1 -d 2 -p tcp -e 1040 -c 1 -i 28 -a 1 -x {0.0 3.0 14 ------- null}
+ -t 10.39648 -s 2 -d 3 -p tcp -e 1040 -c 1 -i 28 -a 1 -x {0.0 3.0 14 ------- null}
- -t 10.39648 -s 2 -d 3 -p tcp -e 1040 -c 1 -i 28 -a 1 -x {0.0 3.0 14 ------- null}
h -t 10.39648 -s 2 -d 3 -p tcp -e 1040 -c 1 -i 28 -a 1 -x {0.0 3.0 -1 ------- null}
r -t 10.40648 -s 2 -d 3 -p tcp -e 1040 -c 1 -i 27 -a 1 -x {0.0 3.0 13 ------- null}
+ -t 10.40648 -s 3 -d 2 -p ack -e 40 -c 1 -i 30 -a 1 -x {3.0 0.0 8 ------- null}
- -t 10.40648 -s 3 -d 2 -p ack -e 40 -c 1 -i 30 -a 1 -x {3.0 0.0 8 ------- null}
h -t 10.40648 -s 3 -d 2 -p ack -e 40 -c 1 -i 30 -a 1 -x {3.0 0.0 -1 ------- null}
r -t 10.407312 -s 2 -d 3 -p tcp -e 1040 -c 1 -i 28 -a 1 -x {0.0 3.0 14 ------- null}
+ -t 10.407312 -s 3 -d 2 -p ack -e 40 -c 1 -i 31 -a 1 -x {3.0 0.0 8 ------- null}
- -t 10.407312 -s 3 -d 2 -p ack -e 40 -c 1 -i 31 -a 1 -x {3.0 0.0 8 ------- null}
h -t 10.407312 -s 3 -d 2 -p ack -e 40 -c 1 -i 31 -a 1 -x {3.0 0.0 -1 ------- null}
r -t 10.416512 -s 3 -d 2 -p ack -e 40 -c 1 -i 30 -a 1 -x {3.0 0.0 8 ------- null}
+ -t 10.416512 -s 2 -d 1 -p ack -e 40 -c 1 -i 30 -a 1 -x {3.0 0.0 8 ------- null}
- -t 10.416512 -s 2 -d 1 -p ack -e 40 -c 1 -i 30 -a 1 -x {3.0 0.0 8 ------- null}
h -t 10.416512 -s 2 -d 1 -p ack -e 40 -c 1 -i 30 -a 1 -x {3.0 0.0 -1 ------- null}
r -t 10.417344 -s 3 -d 2 -p ack -e 40 -c 1 -i 31 -a 1 -x {3.0 0.0 8 ------- null}
+ -t 10.417344 -s 2 -d 1 -p ack -e 40 -c 1 -i 31 -a 1 -x {3.0 0.0 8 ------- null}
- -t 10.417344 -s 2 -d 1 -p ack -e 40 -c 1 -i 31 -a 1 -x {3.0 0.0 8 ------- null}
h -t 10.417344 -s 2 -d 1 -p ack -e 40 -c 1 -i 31 -a 1 -x {3.0 0.0 -1 ------- null}
r -t 10.426544 -s 2 -d 1 -p ack -e 40 -c 1 -i 30 -a 1 -x {3.0 0.0 8 ------- null}
+ -t 10.426544 -s 1 -d 0 -p ack -e 40 -c 1 -i 30 -a 1 -x {3.0 0.0 8 ------- null}
- -t 10.426544 -s 1 -d 0 -p ack -e 40 -c 1 -i 30 -a 1 -x {3.0 0.0 8 ------- null}
h -t 10.426544 -s 1 -d 0 -p ack -e 40 -c 1 -i 30 -a 1 -x {3.0 0.0 -1 ------- null}
r -t 10.427376 -s 2 -d 1 -p ack -e 40 -c 1 -i 31 -a 1 -x {3.0 0.0 8 ------- null}
+ -t 10.427376 -s 1 -d 0 -p ack -e 40 -c 1 -i 31 -a 1 -x {3.0 0.0 8 ------- null}
- -t 10.427376 -s 1 -d 0 -p ack -e 40 -c 1 -i 31 -a 1 -x {3.0 0.0 8 ------- null}
h -t 10.427376 -s 1 -d 0 -p ack -e 40 -c 1 -i 31 -a 1 -x {3.0 0.0 -1 ------- null}
r -t 10.436576 -s 1 -d 0 -p ack -e 40 -c 1 -i 30 -a 1 -x {3.0 0.0 8 ------- null}