+ 1 0 1 tcp 40 ------- 1 0.0 3.0 0 0
- 1 0 1 tcp 40 ------- 1 0.0 3.0 0 0
r 1.010032 0 1 tcp 40 ------- 1 0.0 3.0 0 0
d 1.010032 1 2 tcp 40 ------- 1 0.0 3.0 0 0
+ 4 0 1 tcp 40 ---A--- 1 0.0 3.0 0 1
- 4 0 1 tcp 40 ---A--- 1 0.0 3.0 0 1
r 4.010032 0 1 tcp 40 ---A--- 1 0.0 3.0 0 1
d 4.010032 1 2 tcp 40 ---A--- 1 0.0 3.0 0 1
+ 10 0 1 tcp 40 ---A--- 1 0.0 3.0 0 2
- 10 0 1 tcp 40 ---A--- 1 0.0 3.0 0 2
r 10.010032 0 1 tcp 40 ---A--- 1 0.0 3.0 0 2
+ 10.010032 1 2 tcp 40 ---A--- 1 0.0 3.0 0 2
- 10.010032 1 2 tcp 40 ---A--- 1 0.0 3.0 0 2
r 10.020064 1 2 tcp 40 ---A--- 1 0.0 3.0 0 2
+ 10.020064 2 3 tcp 40 ---A--- 1 0.0 3.0 0 2
- 10.020064 2 3 tcp 40 ---A--- 1 0.0 3.0 0 2
r 10.030096 2 3 tcp 40 ---A--- 1 0.0 3.0 0 2
+ 10.030096 3 2 ack 40 ------- 1 3.0 0.0 0 3
- 10.030096 3 2 ack 40 ------- 1 3.0 0.0 0 3
r 10.040128 3 2 ack 40 ------- 1 3.0 0.0 0 3
+ 10.040128 2 1 ack 40 ------- 1 3.0 0.0 0 3
- 10.040128 2 1 ack 40 ------- 1 3.0 0.0 0 3
r 10.05016 2 1 ack 40 ------- 1 3.0 0.0 0 3
+ 10.05016 1 0 ack 40 ------- 1 3.0 0.0 0 3
- 10.05016 1 0 ack 40 ------- 1 3.0 0.0 0 3
r 10.060192 1 0 ack 40 ------- 1 3.0 0.0 0 3
+ 10.060192 0 1 tcp 1040 ------- 1 0.0 3.0 1 4
- 10.060192 0 1 tcp 1040 ------- 1 0.0 3.0 1 4
r 10.071024 0 1 tcp 1040 ------- 1 0.0 3.0 1 4
+ 10.071024 1 2 tcp 1040 ------- 1 0.0 3.0 1 4
- 10.071024 1 2 tcp 1040 ------- 1 0.0 3.0 1 4
r 10.081856 1 2 tcp 1040 ------- 1 0.0 3.0 1 4
+ 10.081856 2 3 tcp 1040 ------- 1 0.0 3.0 1 4
- 10.081856 2 3 tcp 1040 ------- 1 0.0 3.0 1 4
r 10.092688 2 3 tcp 1040 ------- 1 0.0 3.0 1 4
+ 10.092688 3 2 ack 40 ------- 1 3.0 0.0 1 5
- 10.092688 3 2 ack 40 ------- 1 3.0 0.0 1 5
r 10.10272 3 2 ack 40 ------- 1 3.0 0.0 1 5
+ 10.10272 2 1 ack 40 ------- 1 3.0 0.0 1 5
- 10.10272 2 1 ack 40 ------- 1 3.0 0.0 1 5
r 10.112752 2 1 ack 40 ------- 1 3.0 0.0 1 5
+ 10.112752 1 0 ack 40 ------- 1 3.0 0.0 1 5
- 10.112752 1 0 ack 40 ------- 1 3.0 0.0 1 5
r 10.122784 1 0 ack 40 ------- 1 3.0 0.0 1 5
+ 10.122784 0 1 tcp 1040 ------- 1 0.0 3.0 2 6
- 10.122784 0 1 tcp 1040 ------- 1 0.0 3.0 2 6
+ 10.122784 0 1 tcp 1040 ------- 1 0.0 3.0 3 7
- 10.123616 0 1 tcp 1040 ------- 1 0.0 3.0 3 7
r 10.133616 0 1 tcp 1040 ------- 1 0.0 3.0 2 6
+ 10.133616 1 2 tcp 1040 ------- 1 0.0 3.0 2 6
- 10.133616 1 2 tcp 1040 ------- 1 0.0 3.0 2 6
r 10.134448 0 1 tcp 1040 ------- 1 0.0 3.0 3 7
+ 10.134448 1 2 tcp 1040 ------- 1 0.0 3.0 3 7
- 10.134448 1 2 tcp 1040 ------- 1 0.0 3.0 3 7
r 10.144448 1 2 tcp 1040 ------- 1 0.0 3.0 2 6
+ 10.144448 2 3 tcp 1040 ------- 1 0.0 3.0 2 6
- 10.144448 2 3 tcp 1040 ------- 1 0.0 3.0 2 6
r 10.14528 1 2 tcp 1040 ------- 1 0.0 3.0 3 7
+ 10.14528 2 3 tcp 1040 ------- 1 0.0 3.0 3 7
- 10.14528 2 3 tcp 1040 ------- 1 0.0 3.0 3 7
r 10.15528 2 3 tcp 1040 ------- 1 0.0 3.0 2 6
+ 10.15528 3 2 ack 40 ------- 1 3.0 0.0 2 8
- 10.15528 3 2 ack 40 ------- 1 3.0 0.0 2 8
r 10.156112 2 3 tcp 1040 ------- 1 0.0 3.0 3 7
+ 10.156112 3 2 ack 40 ------- 1 3.0 0.0 3 9
- 10.156112 3 2 ack 40 ------- 1 3.0 0.0 3 9
r 10.165312 3 2 ack 40 ------- 1 3.0 0.0 2 8
+ 10.165312 2 1 ack 40 ------- 1 3.0 0.0 2 8
- 10.165312 2 1 ack 40 ------- 1 3.0 0.0 2 8
r 10.166144 3 2 ack 40 ------- 1 3.0 0.0 3 9
+ 10.166144 2 1 ack 40 ------- 1 3.0 0.0 3 9
- 10.166144 2 1 ack 40 ------- 1 3.0 0.0 3 9
r 10.175344 2 1 ack 40 ------- 1 3.0 0.0 2 8
+ 10.175344 1 0 ack 40 ------- 1 3.0 0.0 2 8
- 10.175344 1 0 ack 40 ------- 1 3.0 0.0 2 8
r 10.176176 2 1 ack 40 ------- 1 3.0 0.0 3 9
+ 10.176176 1 0 ack 40 ------- 1 3.0 0.0 3 9
- 10.176176 1 0 ack 40 ------- 1 3.0 0.0 3 9
r 10.185376 1 0 ack 40 ------- 1 3.0 0.0 2 8
+ 10.185376 0 1 tcp 1040 ------- 1 0.0 3.0 4 10
- 10.185376 0 1 tcp 1040 ------- 1 0.0 3.0 4 10
r 10.186208 1 0 ack 40 ------- 1 3.0 0.0 3 9
+ 10.186208 0 1 tcp 1040 ------- 1 0.0 3.0 5 11
- 10.186208 0 1 tcp 1040 ------- 1 0.0 3.0 5 11
r 10.196208 0 1 tcp 1040 ------- 1 0.0 3.0 4 10
+ 10.196208 1 2 tcp 1040 ------- 1 0.0 3.0 4 10
- 10.196208 1 2 tcp 1040 ------- 1 0.0 3.0 4 10
r 10.19704 0 1 tcp 1040 ------- 1 0.0 3.0 5 11
+ 10.19704 1 2 tcp 1040 ------- 1 0.0 3.0 5 11
- 10.19704 1 2 tcp 1040 ------- 1 0.0 3.0 5 11
r 10.20704 1 2 tcp 1040 ------- 1 0.0 3.0 4 10
+ 10.20704 2 3 tcp 1040 ------- 1 0.0 3.0 4 10
- 10.20704 2 3 tcp 1040 ------- 1 0.0 3.0 4 10
r 10.207872 1 2 tcp 1040 ------- 1 0.0 3.0 5 11
+ 10.207872 2 3 tcp 1040 ------- 1 0.0 3.0 5 11
- 10.207872 2 3 tcp 1040 ------- 1 0.0 3.0 5 11
r 10.217872 2 3 tcp 1040 ------- 1 0.0 3.0 4 10
+ 10.217872 3 2 ack 40 ------- 1 3.0 0.0 4 12
- 10.217872 3 2 ack 40 ------- 1 3.0 0.0 4 12
r 10.218704 2 3 tcp 1040 ------- 1 0.0 3.0 5 11
+ 10.218704 3 2 ack 40 ------- 1 3.0 0.0 5 13
- 10.218704 3 2 ack 40 ------- 1 3.0 0.0 5 13
r 10.227904 3 2 ack 40 ------- 1 3.0 0.0 4 12
+ 10.227904 2 1 ack 40 ------- 1 3.0 0.0 4 12
- 10.227904 2 1 ack 40 ------- 1 3.0 0.0 4 12
r 10.228736 3 2 ack 40 ------- 1 3.0 0.0 5 13
+ 10.228736 2 1 ack 40 ------- 1 3.0 0.0 5 13
- 10.228736 2 1 ack 40 ------- 1 3.0 0.0 5 13
r 10.237936 2 1 ack 40 ------- 1 3.0 0.0 4 12
+ 10.237936 1 0 ack 40 ------- 1 3.0 0.0 4 12
- 10.237936 1 0 ack 40 ------- 1 3.0 0.0 4 12
r 10.238768 2 1 ack 40 ------- 1 3.0 0.0 5 13
+ 10.238768 1 0 ack 40 ------- 1 3.0 0.0 5 13
- 10.238768 1 0 ack 40 ------- 1 3.0 0.0 5 13
r 10.247968 1 0 ack 40 ------- 1 3.0 0.0 4 12
+ 10.247968 0 1 tcp 1040 ------- 1 0.0 3.0 6 14
- 10.247968 0 1 tcp 1040 ------- 1 0.0 3.0 6 14
+ 10.247968 0 1 tcp 1040 ------- 1 0.0 3.0 7 15
r 10.2488 1 0 ack 40 ------- 1 3.0 0.0 5 13
+ 10.2488 0 1 tcp 1040 ------- 1 0.0 3.0 8 16
- 10.2488 0 1 tcp 1040 ------- 1 0.0 3.0 7 15
- 10.249632 0 1 tcp 1040 ------- 1 0.0 3.0 8 16
r 10.2588 0 1 tcp 1040 ------- 1 0.0 3.0 6 14
+ 10.2588 1 2 tcp 1040 ------- 1 0.0 3.0 6 14
- 10.2588 1 2 tcp 1040 ------- 1 0.0 3.0 6 14
r 10.259632 0 1 tcp 1040 ------- 1 0.0 3.0 7 15
+ 10.259632 1 2 tcp 1040 ------- 1 0.0 3.0 7 15
- 10.259632 1 2 tcp 1040 ------- 1 0.0 3.0 7 15
r 10.260464 0 1 tcp 1040 ------- 1 0.0 3.0 8 16
+ 10.260464 1 2 tcp 1040 ------- 1 0.0 3.0 8 16
- 10.260464 1 2 tcp 1040 ------- 1 0.0 3.0 8 16
r 10.269632 1 2 tcp 1040 ------- 1 0.0 3.0 6 14
+ 10.269632 2 3 tcp 1040 ------- 1 0.0 3.0 6 14
- 10.269632 2 3 tcp 1040 ------- 1 0.0 3.0 6 14
r 10.270464 1 2 tcp 1040 ------- 1 0.0 3.0 7 15
+ 10.270464 2 3 tcp 1040 ------- 1 0.0 3.0 7 15
- 10.270464 2 3 tcp 1040 ------- 1 0.0 3.0 7 15
r 10.271296 1 2 tcp 1040 ------- 1 0.0 3.0 8 16
+ 10.271296 2 3 tcp 1040 ------- 1 0.0 3.0 8 16
- 10.271296 2 3 tcp 1040 ------- 1 0.0 3.0 8 16
r 10.280464 2 3 tcp 1040 ------- 1 0.0 3.0 6 14
+ 10.280464 3 2 ack 40 ------- 1 3.0 0.0 6 17
- 10.280464 3 2 ack 40 ------- 1 3.0 0.0 6 17
r 10.281296 2 3 tcp 1040 ------- 1 0.0 3.0 7 15
+ 10.281296 3 2 ack 40 ------- 1 3.0 0.0 7 18
- 10.281296 3 2 ack 40 ------- 1 3.0 0.0 7 18
r 10.282128 2 3 tcp 1040 ------- 1 0.0 3.0 8 16
+ 10.282128 3 2 ack 40 ------- 1 3.0 0.0 8 19
- 10.282128 3 2 ack 40 ------- 1 3.0 0.0 8 19
r 10.290496 3 2 ack 40 ------- 1 3.0 0.0 6 17
+ 10.290496 2 1 ack 40 ------- 1 3.0 0.0 6 17
- 10.290496 2 1 ack 40 ------- 1 3.0 0.0 6 17
r 10.291328 3 2 ack 40 ------- 1 3.0 0.0 7 18
+ 10.291328 2 1 ack 40 ------- 1 3.0 0.0 7 18
- 10.291328 2 1 ack 40 ------- 1 3.0 0.0 7 18
r 10.29216 3 2 ack 40 ------- 1 3.0 0.0 8 19
+ 10.29216 2 1 ack 40 ------- 1 3.0 0.0 8 19
- 10.29216 2 1 ack 40 ------- 1 3.0 0.0 8 19
r 10.300528 2 1 ack 40 ------- 1 3.0 0.0 6 17
+ 10.300528 1 0 ack 40 ------- 1 3.0 0.0 6 17
- 10.300528 1 0 ack 40 ------- 1 3.0 0.0 6 17
r 10.30136 2 1 ack 40 ------- 1 3.0 0.0 7 18
+ 10.30136 1 0 ack 40 ------- 1 3.0 0.0 7 18
- 10.30136 1 0 ack 40 ------- 1 3.0 0.0 7 18
r 10.302192 2 1 ack 40 ------- 1 3.0 0.0 8 19
+ 10.302192 1 0 ack 40 ------- 1 3.0 0.0 8 19
- 10.302192 1 0 ack 40 ------- 1 3.0 0.0 8 19
r 10.31056 1 0 ack 40 ------- 1 3.0 0.0 6 17
+ 10.31056 0 1 tcp 1040 ------- 1 0.0 3.0 9 20
- 10.31056 0 1 tcp 1040 ------- 1 0.0 3.0 9 20
r 10.311392 1 0 ack 40 ------- 1 3.0 0.0 7 18
+ 10.311392 0 1 tcp 1040 ------- 1 0.0 3.0 10 21
+ 10.311392 0 1 tcp 1040 ------- 1 0.0 3.0 11 22
- 10.311392 0 1 tcp 1040 ------- 1 0.0 3.0 10 21
r 10.312224 1 0 ack 40 ------- 1 3.0 0.0 8 19
+ 10.312224 0 1 tcp 1040 ------- 1 0.0 3.0 12 23
- 10.312224 0 1 tcp 1040 ------- 1 0.0 3.0 11 22
- 10.313056 0 1 tcp 1040 ------- 1 0.0 3.0 12 23
r 10.321392 0 1 tcp 1040 ------- 1 0.0 3.0 9 20
d 10.321392 1 2 tcp 1040 ------- 1 0.0 3.0 9 20
r 10.322224 0 1 tcp 1040 ------- 1 0.0 3.0 10 21
+ 10.322224 1 2 tcp 1040 ------- 1 0.0 3.0 10 21
- 10.322224 1 2 tcp 1040 ------- 1 0.0 3.0 10 21
r 10.323056 0 1 tcp 1040 ------- 1 0.0 3.0 11 22
+ 10.323056 1 2 tcp 1040 ------- 1 0.0 3.0 11 22
- 10.323056 1 2 tcp 1040 ------- 1 0.0 3.0 11 22
r 10.323888 0 1 tcp 1040 ------- 1 0.0 3.0 12 23
+ 10.323888 1 2 tcp 1040 ------- 1 0.0 3.0 12 23
- 10.323888 1 2 tcp 1040 ------- 1 0.0 3.0 12 23
r 10.333056 1 2 tcp 1040 ------- 1 0.0 3.0 10 21
+ 10.333056 2 3 tcp 1040 ------- 1 0.0 3.0 10 21
- 10.333056 2 3 tcp 1040 ------- 1 0.0 3.0 10 21
r 10.333888 1 2 tcp 1040 ------- 1 0.0 3.0 11 22
+ 10.333888 2 3 tcp 1040 ------- 1 0.0 3.0 11 22
- 10.333888 2 3 tcp 1040 ------- 1 0.0 3.0 11 22
r 10.33472 1 2 tcp 1040 ------- 1 0.0 3.0 12 23
+ 10.33472 2 3 tcp 1040 ------- 1 0.0 3.0 12 23
- 10.33472 2 3 tcp 1040 ------- 1 0.0 3.0 12 23
r 10.343888 2 3 tcp 1040 ------- 1 0.0 3.0 10 21
+ 10.343888 3 2 ack 40 ------- 1 3.0 0.0 8 24
- 10.343888 3 2 ack 40 ------- 1 3.0 0.0 8 24
r 10.34472 2 3 tcp 1040 ------- 1 0.0 3.0 11 22
+ 10.34472 3 2 ack 40 ------- 1 3.0 0.0 8 25
- 10.34472 3 2 ack 40 ------- 1 3.0 0.0 8 25
r 10.345552 2 3 tcp 1040 ------- 1 0.0 3.0 12 23
+ 10.345552 3 2 ack 40 ------- 1 3.0 0.0 8 26
- 10.345552 3 2 ack 40 ------- 1 3.0 0.0 8 26
r 10.35392 3 2 ack 40 ------- 1 3.0 0.0 8 24
+ 10.35392 2 1 ack 40 ------- 1 3.0 0.0 8 24
- 10.35392 2 1 ack 40 ------- 1 3.0 0.0 8 24
r 10.354752 3 2 ack 40 ------- 1 3.0 0.0 8 25
+ 10.354752 2 1 ack 40 ------- 1 3.0 0.0 8 25
- 10.354752 2 1 ack 40 ------- 1 3.0 0.0 8 25
r 10.355584 3 2 ack 40 ------- 1 3.0 0.0 8 26
+ 10.355584 2 1 ack 40 ------- 1 3.0 0.0 8 26
- 10.355584 2 1 ack 40 ------- 1 3.0 0.0 8 26
r 10.363952 2 1 ack 40 ------- 1 3.0 0.0 8 24
+ 10.363952 1 0 ack 40 ------- 1 3.0 0.0 8 24
- 10.363952 1 0 ack 40 ------- 1 3.0 0.0 8 24
r 10.364784 2 1 ack 40 ------- 1 3.0 0.0 8 25
+ 10.364784 1 0 ack 40 ------- 1 3.0 0.0 8 25
- 10.364784 1 0 ack 40 ------- 1 3.0 0.0 8 25
r 10.365616 2 1 ack 40 ------- 1 3.0 0.0 8 26
+ 10.365616 1 0 ack 40 ------- 1 3.0 0.0 8 26
- 10.365616 1 0 ack 40 ------- 1 3.0 0.0 8 26
r 10.373984 1 0 ack 40 ------- 1 3.0 0.0 8 24
+ 10.373984 0 1 tcp 1040 ------- 1 0.0 3.0 13 27
- 10.373984 0 1 tcp 1040 ------- 1 0.0 3.0 13 27
r 10.374816 1 0 ack 40 ------- 1 3.0 0.0 8 25
+ 10.374816 0 1 tcp 1040 ------- 1 0.0 3.0 14 28
- 10.374816 0 1 tcp 1040 ------- 1 0.0 3.0 14 28
r 10.375648 1 0 ack 40 ------- 1 3.0 0.0 8 26
+ 10.375648 0 1 tcp 1040 ------- 1 0.0 3.0 9 29
- 10.375648 0 1 tcp 1040 ------- 1 0.0 3.0 9 29
r 10.384816 0 1 tcp 1040 ------- 1 0.0 3.0 13 27
+ 10.384816 1 2 tcp 1040 ------- 1 0.0 3.0 13 27
- 10.384816 1 2 tcp 1040 ------- 1 0.0 3.0 13 27
r 10.385648 0 1 tcp 1040 ------- 1 0.0 3.0 14 28
+ 10.385648 1 2 tcp 1040 ------- 1 0.0 3.0 14 28
- 10.385648 1 2 tcp 1040 ------- 1 0.0 3.0 14 28
r 10.38648 0 1 tcp 1040 ------- 1 0.0 3.0 9 29
d 10.38648 1 2 tcp 1040 ------- 1 0.0 3.0 9 29
r 10.395648 1 2 tcp 1040 ------- 1 0.0 3.0 13 27
+ 10.395648 2 3 tcp 1040 ------- 1 0.0 3.0 13 27
- 10.395648 2 3 tcp 1040 ------- 1 0.0 3.0 13 27
r 10.39648 1 2 tcp 1040 ------- 1 0.0 3.0 14 28
+ 10.39648 2 3 tcp 1040 ------- 1 0.0 3.0 14 28
- 10.39648 2 3 tcp 1040 ------- 1 0.0 3.0 14 28
r 10.40648 2 3 tcp 1040 ------- 1 0.0 3.0 13 27
+ 10.40648 3 2 ack 40 ------- 1 3.0 0.0 8 30
- 10.40648 3 2 ack 40 ------- 1 3.0 0.0 8 30
r 10.407312 2 3 tcp 1040 ------- 1 0.0 3.0 14 28
+ 10.407312 3 2 ack 40 ------- 1 3.0 0.0 8 31
- 10.407312 3 2 ack 40 ------- 1 3.0 0.0 8 31
r 10.416512 3 2 ack 40 ------- 1 3.0 0.0 8 30
+ 10.416512 2 1 ack 40 ------- 1 3.0 0.0 8 30
- 10.416512 2 1 ack 40 ------- 1 3.0 0.0 8 30
r 10.417344 3 2 ack 40 ------- 1 3.0 0.0 8 31
+ 10.417344 2 1 ack 40 ------- 1 3.0 0.0 8 31
- 10.417344 2 1 ack 40 ------- 1 3.0 0.0 8 31
r 10.426544 2 1 ack 40 ------- 1 3.0 0.0 8 30
+ 10.426544 1 0 ack 40 ------- 1 3.0 0.0 8 30
- 10.426544 1 0 ack 40 ------- 1 3.0 0.0 8 30
r 10.427376 2 1 ack 40 ------- 1 3.0 0.0 8 31
+ 10.427376 1 0 ack 40 ------- 1 3.0 0.0 8 31
- 10.427376 1 0 ack 40 ------- 1 3.0 0.0 8 31
r 10.436576 1 0 ack 40 ------- 1 3.0 0.0 8 30
r 10.437408 1 0 ack 40 ------- 1 3.0 0.0 8 31
+ 10.437408 0 1 tcp 1040 ---A--- 1 0.0 3.0 15 32
- 10.437408 0 1 tcp 1040 ---A--- 1 0.0 3.0 15 32
r 10.44824 0 1 tcp 1040 ---A--- 1 0.0 3.0 15 32
+ 10.44824 1 2 tcp 1040 ---A--- 1 0.0 3.0 15 32
- 10.44824 1 2 tcp 1040 ---A--- 1 0.0 3.0 15 32
r 10.459072 1 2 tcp 1040 ---A--- 1 0.0 3.0 15 32
+ 10.459072 2 3 tcp 1040 ---A--- 1 0.0 3.0 15 32
- 10.459072 2 3 tcp 1040 ---A--- 1 0.0 3.0 15 32
r 10.469904 2 3 tcp 1040 ---A--- 1 0.0 3.0 15 32
+ 10.469904 3 2 ack 40 ------- 1 3.0 0.0 8 33
- 10.469904 3 2 ack 40 ------- 1 3.0 0.0 8 33
r 10.479936 3 2 ack 40 ------- 1 3.0 0.0 8 33
+ 10.479936 2 1 ack 40 ------- 1 3.0 0.0 8 33
- 10.479936 2 1 ack 40 ------- 1 3.0 0.0 8 33
r 10.489968 2 1 ack 40 ------- 1 3.0 0.0 8 33
+ 10.489968 1 0 ack 40 ------- 1 3.0 0.0 8 33
- 10.489968 1 0 ack 40 ------- 1 3.0 0.0 8 33
r 10.5 1 0 ack 40 ------- 1 3.0 0.0 8 33
+ 10.5 0 1 tcp 1040 ------- 1 0.0 3.0 16 34
- 10.5 0 1 tcp 1040 ------- 1 0.0 3.0 16 34
r 10.510832 0 1 tcp 1040 ------- 1 0.0 3.0 16 34
+ 10.510832 1 2 tcp 1040 ------- 1 0.0 3.0 16 34
- 10.510832 1 2 tcp 1040 ------- 1 0.0 3.0 16 34
r 10.521664 1 2 tcp 1040 ------- 1 0.0 3.0 16 34
+ 10.521664 2 3 tcp 1040 ------- 1 0.0 3.0 16 34
- 10.521664 2 3 tcp 1040 ------- 1 0.0 3.0 16 34
r 10.532496 2 3 tcp 1040 ------- 1 0.0 3.0 16 34
+ 10.532496 3 2 ack 40 ------- 1 3.0 0.0 8 35
- 10.532496 3 2 ack 40 ------- 1 3.0 0.0 8 35
r 10.542528 3 2 ack 40 ------- 1 3.0 0.0 8 35
+ 10.542528 2 1 ack 40 ------- 1 3.0 0.0 8 35
- 10.542528 2 1 ack 40 ------- 1 3.0 0.0 8 35
r 10.55256 2 1 ack 40 ------- 1 3.0 0.0 8 35
+ 10.55256 1 0 ack 40 ------- 1 3.0 0.0 8 35
- 10.55256 1 0 ack 40 ------- 1 3.0 0.0 8 35
r 10.562592 1 0 ack 40 ------- 1 3.0 0.0 8 35
+ 10.562592 0 1 tcp 1040 ------- 1 0.0 3.0 17 36
- 10.562592 0 1 tcp 1040 ------- 1 0.0 3.0 17 36
r 10.573424 0 1 tcp 1040 ------- 1 0.0 3.0 17 36
+ 10.573424 1 2 tcp 1040 ------- 1 0.0 3.0 17 36
- 10.573424 1 2 tcp 1040 ------- 1 0.0 3.0 17 36
+ 10.575648 0 1 tcp 1040 ------- 1 0.0 3.0 9 37
- 10.575648 0 1 tcp 1040 ------- 1 0.0 3.0 9 37
r 10.584256 1 2 tcp 1040 ------- 1 0.0 3.0 17 36
+ 10.584256 2 3 tcp 1040 ------- 1 0.0 3.0 17 36
- 10.584256 2 3 tcp 1040 ------- 1 0.0 3.0 17 36
r 10.58648 0 1 tcp 1040 ------- 1 0.0 3.0 9 37
+ 10.58648 1 2 tcp 1040 ------- 1 0.0 3.0 9 37
- 10.58648 1 2 tcp 1040 ------- 1 0.0 3.0 9 37
r 10.595088 2 3 tcp 1040 ------- 1 0.0 3.0 17 36
+ 10.595088 3 2 ack 40 ------- 1 3.0 0.0 8 38
- 10.595088 3 2 ack 40 ------- 1 3.0 0.0 8 38
r 10.597312 1 2 tcp 1040 ------- 1 0.0 3.0 9 37
+ 10.597312 2 3 tcp 1040 ------- 1 0.0 3.0 9 37
- 10.597312 2 3 tcp 1040 ------- 1 0.0 3.0 9 37
r 10.60512 3 2 ack 40 ------- 1 3.0 0.0 8 38
+ 10.60512 2 1 ack 40 ------- 1 3.0 0.0 8 38
- 10.60512 2 1 ack 40 ------- 1 3.0 0.0 8 38
r 10.608144 2 3 tcp 1040 ------- 1 0.0 3.0 9 37
+ 10.608144 3 2 ack 40 ------- 1 3.0 0.0 17 39
- 10.608144 3 2 ack 40 ------- 1 3.0 0.0 17 39
r 10.615152 2 1 ack 40 ------- 1 3.0 0.0 8 38
+ 10.615152 1 0 ack 40 ------- 1 3.0 0.0 8 38
- 10.615152 1 0 ack 40 ------- 1 3.0 0.0 8 38
r 10.618176 3 2 ack 40 ------- 1 3.0 0.0 17 39
+ 10.618176 2 1 ack 40 ------- 1 3.0 0.0 17 39
- 10.618176 2 1 ack 40 ------- 1 3.0 0.0 17 39
r 10.625184 1 0 ack 40 ------- 1 3.0 0.0 8 38
+ 10.625184 0 1 tcp 1040 ------- 1 0.0 3.0 10 40
- 10.625184 0 1 tcp 1040 ------- 1 0.0 3.0 10 40
r 10.628208 2 1 ack 40 ------- 1 3.0 0.0 17 39
+ 10.628208 1 0 ack 40 ------- 1 3.0 0.0 17 39
- 10.628208 1 0 ack 40 ------- 1 3.0 0.0 17 39
r 10.636016 0 1 tcp 1040 ------- 1 0.0 3.0 10 40
+ 10.636016 1 2 tcp 1040 ------- 1 0.0 3.0 10 40
- 10.636016 1 2 tcp 1040 ------- 1 0.0 3.0 10 40
r 10.63824 1 0 ack 40 ------- 1 3.0 0.0 17 39
+ 10.63824 0 1 tcp 1040 ---A--- 1 0.0 3.0 18 41
- 10.63824 0 1 tcp 1040 ---A--- 1 0.0 3.0 18 41
+ 10.63824 0 1 tcp 1040 ------- 1 0.0 3.0 19 42
- 10.639072 0 1 tcp 1040 ------- 1 0.0 3.0 19 42
r 10.646848 1 2 tcp 1040 ------- 1 0.0 3.0 10 40
+ 10.646848 2 3 tcp 1040 ------- 1 0.0 3.0 10 40
- 10.646848 2 3 tcp 1040 ------- 1 0.0 3.0 10 40
r 10.649072 0 1 tcp 1040 ---A--- 1 0.0 3.0 18 41
+ 10.649072 1 2 tcp 1040 ---A--- 1 0.0 3.0 18 41
- 10.649072 1 2 tcp 1040 ---A--- 1 0.0 3.0 18 41
r 10.649904 0 1 tcp 1040 ------- 1 0.0 3.0 19 42
+ 10.649904 1 2 tcp 1040 ------- 1 0.0 3.0 19 42
- 10.649904 1 2 tcp 1040 ------- 1 0.0 3.0 19 42
r 10.65768 2 3 tcp 1040 ------- 1 0.0 3.0 10 40
+ 10.65768 3 2 ack 40 ------- 1 3.0 0.0 17 43
- 10.65768 3 2 ack 40 ------- 1 3.0 0.0 17 43
r 10.659904 1 2 tcp 1040 ---A--- 1 0.0 3.0 18 41
+ 10.659904 2 3 tcp 1040 ---A--- 1 0.0 3.0 18 41
- 10.659904 2 3 tcp 1040 ---A--- 1 0.0 3.0 18 41
r 10.660736 1 2 tcp 1040 ------- 1 0.0 3.0 19 42
+ 10.660736 2 3 tcp 1040 ------- 1 0.0 3.0 19 42
- 10.660736 2 3 tcp 1040 ------- 1 0.0 3.0 19 42
r 10.667712 3 2 ack 40 ------- 1 3.0 0.0 17 43
+ 10.667712 2 1 ack 40 ------- 1 3.0 0.0 17 43
- 10.667712 2 1 ack 40 ------- 1 3.0 0.0 17 43
r 10.670736 2 3 tcp 1040 ---A--- 1 0.0 3.0 18 41
+ 10.670736 3 2 ack 40 ------- 1 3.0 0.0 18 44
- 10.670736 3 2 ack 40 ------- 1 3.0 0.0 18 44
r 10.671568 2 3 tcp 1040 ------- 1 0.0 3.0 19 42
+ 10.671568 3 2 ack 40 ------- 1 3.0 0.0 19 45
- 10.671568 3 2 ack 40 ------- 1 3.0 0.0 19 45
r 10.677744 2 1 ack 40 ------- 1 3.0 0.0 17 43
+ 10.677744 1 0 ack 40 ------- 1 3.0 0.0 17 43
- 10.677744 1 0 ack 40 ------- 1 3.0 0.0 17 43
r 10.680768 3 2 ack 40 ------- 1 3.0 0.0 18 44
+ 10.680768 2 1 ack 40 ------- 1 3.0 0.0 18 44
- 10.680768 2 1 ack 40 ------- 1 3.0 0.0 18 44
r 10.6816 3 2 ack 40 ------- 1 3.0 0.0 19 45
+ 10.6816 2 1 ack 40 ------- 1 3.0 0.0 19 45
- 10.6816 2 1 ack 40 ------- 1 3.0 0.0 19 45
r 10.687776 1 0 ack 40 ------- 1 3.0 0.0 17 43
+ 10.687776 0 1 tcp 1040 ------- 1 0.0 3.0 20 46
- 10.687776 0 1 tcp 1040 ------- 1 0.0 3.0 20 46
r 10.6908 2 1 ack 40 ------- 1 3.0 0.0 18 44
+ 10.6908 1 0 ack 40 ------- 1 3.0 0.0 18 44
- 10.6908 1 0 ack 40 ------- 1 3.0 0.0 18 44
r 10.691632 2 1 ack 40 ------- 1 3.0 0.0 19 45
+ 10.691632 1 0 ack 40 ------- 1 3.0 0.0 19 45
- 10.691632 1 0 ack 40 ------- 1 3.0 0.0 19 45
r 10.698608 0 1 tcp 1040 ------- 1 0.0 3.0 20 46
+ 10.698608 1 2 tcp 1040 ------- 1 0.0 3.0 20 46
- 10.698608 1 2 tcp 1040 ------- 1 0.0 3.0 20 46
r 10.700832 1 0 ack 40 ------- 1 3.0 0.0 18 44
r 10.701664 1 0 ack 40 ------- 1 3.0 0.0 19 45
+ 10.701664 0 1 tcp 1040 ------- 1 0.0 3.0 21 47
- 10.701664 0 1 tcp 1040 ------- 1 0.0 3.0 21 47
r 10.70944 1 2 tcp 1040 ------- 1 0.0 3.0 20 46
+ 10.70944 2 3 tcp 1040 ------- 1 0.0 3.0 20 46
- 10.70944 2 3 tcp 1040 ------- 1 0.0 3.0 20 46
r 10.712496 0 1 tcp 1040 ------- 1 0.0 3.0 21 47
+ 10.712496 1 2 tcp 1040 ------- 1 0.0 3.0 21 47
- 10.712496 1 2 tcp 1040 ------- 1 0.0 3.0 21 47
r 10.720272 2 3 tcp 1040 ------- 1 0.0 3.0 20 46
+ 10.720272 3 2 ack 40 ------- 1 3.0 0.0 20 48
- 10.720272 3 2 ack 40 ------- 1 3.0 0.0 20 48
r 10.723328 1 2 tcp 1040 ------- 1 0.0 3.0 21 47
+ 10.723328 2 3 tcp 1040 ------- 1 0.0 3.0 21 47
- 10.723328 2 3 tcp 1040 ------- 1 0.0 3.0 21 47
r 10.730304 3 2 ack 40 ------- 1 3.0 0.0 20 48
+ 10.730304 2 1 ack 40 ------- 1 3.0 0.0 20 48
- 10.730304 2 1 ack 40 ------- 1 3.0 0.0 20 48
r 10.73416 2 3 tcp 1040 ------- 1 0.0 3.0 21 47
+ 10.73416 3 2 ack 40 ------- 1 3.0 0.0 21 49
- 10.73416 3 2 ack 40 ------- 1 3.0 0.0 21 49
r 10.740336 2 1 ack 40 ------- 1 3.0 0.0 20 48
+ 10.740336 1 0 ack 40 ------- 1 3.0 0.0 20 48
- 10.740336 1 0 ack 40 ------- 1 3.0 0.0 20 48
r 10.744192 3 2 ack 40 ------- 1 3.0 0.0 21 49
+ 10.744192 2 1 ack 40 ------- 1 3.0 0.0 21 49
- 10.744192 2 1 ack 40 ------- 1 3.0 0.0 21 49
r 10.750368 1 0 ack 40 ------- 1 3.0 0.0 20 48
+ 10.750368 0 1 tcp 1040 ------- 1 0.0 3.0 22 50
- 10.750368 0 1 tcp 1040 ------- 1 0.0 3.0 22 50
+ 10.750368 0 1 tcp 1040 ------- 1 0.0 3.0 23 51
- 10.7512 0 1 tcp 1040 ------- 1 0.0 3.0 23 51
r 10.754224 2 1 ack 40 ------- 1 3.0 0.0 21 49
+ 10.754224 1 0 ack 40 ------- 1 3.0 0.0 21 49
- 10.754224 1 0 ack 40 ------- 1 3.0 0.0 21 49
r 10.7612 0 1 tcp 1040 ------- 1 0.0 3.0 22 50
+ 10.7612 1 2 tcp 1040 ------- 1 0.0 3.0 22 50
- 10.7612 1 2 tcp 1040 ------- 1 0.0 3.0 22 50
r 10.762032 0 1 tcp 1040 ------- 1 0.0 3.0 23 51
+ 10.762032 1 2 tcp 1040 ------- 1 0.0 3.0 23 51
- 10.762032 1 2 tcp 1040 ------- 1 0.0 3.0 23 51
r 10.764256 1 0 ack 40 ------- 1 3.0 0.0 21 49
+ 10.764256 0 1 tcp 1040 ------- 1 0.0 3.0 24 52
- 10.764256 0 1 tcp 1040 ------- 1 0.0 3.0 24 52
r 10.772032 1 2 tcp 1040 ------- 1 0.0 3.0 22 50
+ 10.772032 2 3 tcp 1040 ------- 1 0.0 3.0 22 50
- 10.772032 2 3 tcp 1040 ------- 1 0.0 3.0 22 50
r 10.772864 1 2 tcp 1040 ------- 1 0.0 3.0 23 51
+ 10.772864 2 3 tcp 1040 ------- 1 0.0 3.0 23 51
- 10.772864 2 3 tcp 1040 ------- 1 0.0 3.0 23 51
r 10.775088 0 1 tcp 1040 ------- 1 0.0 3.0 24 52
+ 10.775088 1 2 tcp 1040 ------- 1 0.0 3.0 24 52
- 10.775088 1 2 tcp 1040 ------- 1 0.0 3.0 24 52
r 10.782864 2 3 tcp 1040 ------- 1 0.0 3.0 22 50
+ 10.782864 3 2 ack 40 ------- 1 3.0 0.0 22 53
- 10.782864 3 2 ack 40 ------- 1 3.0 0.0 22 53
r 10.783696 2 3 tcp 1040 ------- 1 0.0 3.0 23 51
+ 10.783696 3 2 ack 40 ------- 1 3.0 0.0 23 54
- 10.783696 3 2 ack 40 ------- 1 3.0 0.0 23 54
r 10.78592 1 2 tcp 1040 ------- 1 0.0 3.0 24 52
+ 10.78592 2 3 tcp 1040 ------- 1 0.0 3.0 24 52
- 10.78592 2 3 tcp 1040 ------- 1 0.0 3.0 24 52
r 10.792896 3 2 ack 40 ------- 1 3.0 0.0 22 53
+ 10.792896 2 1 ack 40 ------- 1 3.0 0.0 22 53
- 10.792896 2 1 ack 40 ------- 1 3.0 0.0 22 53
r 10.793728 3 2 ack 40 ------- 1 3.0 0.0 23 54
+ 10.793728 2 1 ack 40 ------- 1 3.0 0.0 23 54
- 10.793728 2 1 ack 40 ------- 1 3.0 0.0 23 54
r 10.796752 2 3 tcp 1040 ------- 1 0.0 3.0 24 52
+ 10.796752 3 2 ack 40 ------- 1 3.0 0.0 24 55
- 10.796752 3 2 ack 40 ------- 1 3.0 0.0 24 55
r 10.802928 2 1 ack 40 ------- 1 3.0 0.0 22 53
+ 10.802928 1 0 ack 40 ------- 1 3.0 0.0 22 53
- 10.802928 1 0 ack 40 ------- 1 3.0 0.0 22 53
r 10.80376 2 1 ack 40 ------- 1 3.0 0.0 23 54
+ 10.80376 1 0 ack 40 ------- 1 3.0 0.0 23 54
- 10.80376 1 0 ack 40 ------- 1 3.0 0.0 23 54
r 10.806784 3 2 ack 40 ------- 1 3.0 0.0 24 55
+ 10.806784 2 1 ack 40 ------- 1 3.0 0.0 24 55
- 10.806784 2 1 ack 40 ------- 1 3.0 0.0 24 55
r 10.81296 1 0 ack 40 ------- 1 3.0 0.0 22 53
+ 10.81296 0 1 tcp 1040 ------- 1 0.0 3.0 25 56
- 10.81296 0 1 tcp 1040 ------- 1 0.0 3.0 25 56
r 10.813792 1 0 ack 40 ------- 1 3.0 0.0 23 54
+ 10.813792 0 1 tcp 1040 ------- 1 0.0 3.0 26 57
+ 10.813792 0 1 tcp 1040 ------- 1 0.0 3.0 27 58
- 10.813792 0 1 tcp 1040 ------- 1 0.0 3.0 26 57
- 10.814624 0 1 tcp 1040 ------- 1 0.0 3.0 27 58
r 10.816816 2 1 ack 40 ------- 1 3.0 0.0 24 55
+ 10.816816 1 0 ack 40 ------- 1 3.0 0.0 24 55
- 10.816816 1 0 ack 40 ------- 1 3.0 0.0 24 55
r 10.823792 0 1 tcp 1040 ------- 1 0.0 3.0 25 56
+ 10.823792 1 2 tcp 1040 ------- 1 0.0 3.0 25 56
- 10.823792 1 2 tcp 1040 ------- 1 0.0 3.0 25 56
r 10.824624 0 1 tcp 1040 ------- 1 0.0 3.0 26 57
+ 10.824624 1 2 tcp 1040 ------- 1 0.0 3.0 26 57
- 10.824624 1 2 tcp 1040 ------- 1 0.0 3.0 26 57
r 10.825456 0 1 tcp 1040 ------- 1 0.0 3.0 27 58
+ 10.825456 1 2 tcp 1040 ------- 1 0.0 3.0 27 58
- 10.825456 1 2 tcp 1040 ------- 1 0.0 3.0 27 58
r 10.826848 1 0 ack 40 ------- 1 3.0 0.0 24 55
+ 10.826848 0 1 tcp 1040 ------- 1 0.0 3.0 28 59
- 10.826848 0 1 tcp 1040 ------- 1 0.0 3.0 28 59
r 10.834624 1 2 tcp 1040 ------- 1 0.0 3.0 25 56
+ 10.834624 2 3 tcp 1040 ------- 1 0.0 3.0 25 56
- 10.834624 2 3 tcp 1040 ------- 1 0.0 3.0 25 56
r 10.835456 1 2 tcp 1040 ------- 1 0.0 3.0 26 57
+ 10.835456 2 3 tcp 1040 ------- 1 0.0 3.0 26 57
- 10.835456 2 3 tcp 1040 ------- 1 0.0 3.0 26 57
r 10.836288 1 2 tcp 1040 ------- 1 0.0 3.0 27 58
+ 10.836288 2 3 tcp 1040 ------- 1 0.0 3.0 27 58
- 10.836288 2 3 tcp 1040 ------- 1 0.0 3.0 27 58
r 10.83768 0 1 tcp 1040 ------- 1 0.0 3.0 28 59
+ 10.83768 1 2 tcp 1040 ------- 1 0.0 3.0 28 59
- 10.83768 1 2 tcp 1040 ------- 1 0.0 3.0 28 59
r 10.845456 2 3 tcp 1040 ------- 1 0.0 3.0 25 56
+ 10.845456 3 2 ack 40 ------- 1 3.0 0.0 25 60
- 10.845456 3 2 ack 40 ------- 1 3.0 0.0 25 60
r 10.846288 2 3 tcp 1040 ------- 1 0.0 3.0 26 57
+ 10.846288 3 2 ack 40 ------- 1 3.0 0.0 26 61
- 10.846288 3 2 ack 40 ------- 1 3.0 0.0 26 61
r 10.84712 2 3 tcp 1040 ------- 1 0.0 3.0 27 58
+ 10.84712 3 2 ack 40 ------- 1 3.0 0.0 27 62
- 10.84712 3 2 ack 40 ------- 1 3.0 0.0 27 62
r 10.848512 1 2 tcp 1040 ------- 1 0.0 3.0 28 59
+ 10.848512 2 3 tcp 1040 ------- 1 0.0 3.0 28 59
- 10.848512 2 3 tcp 1040 ------- 1 0.0 3.0 28 59
r 10.855488 3 2 ack 40 ------- 1 3.0 0.0 25 60
+ 10.855488 2 1 ack 40 ------- 1 3.0 0.0 25 60
- 10.855488 2 1 ack 40 ------- 1 3.0 0.0 25 60
r 10.85632 3 2 ack 40 ------- 1 3.0 0.0 26 61
+ 10.85632 2 1 ack 40 ------- 1 3.0 0.0 26 61
- 10.85632 2 1 ack 40 ------- 1 3.0 0.0 26 61
r 10.857152 3 2 ack 40 ------- 1 3.0 0.0 27 62
+ 10.857152 2 1 ack 40 ------- 1 3.0 0.0 27 62
- 10.857152 2 1 ack 40 ------- 1 3.0 0.0 27 62
r 10.859344 2 3 tcp 1040 ------- 1 0.0 3.0 28 59
+ 10.859344 3 2 ack 40 ------- 1 3.0 0.0 28 63
- 10.859344 3 2 ack 40 ------- 1 3.0 0.0 28 63
r 10.86552 2 1 ack 40 ------- 1 3.0 0.0 25 60
+ 10.86552 1 0 ack 40 ------- 1 3.0 0.0 25 60
- 10.86552 1 0 ack 40 ------- 1 3.0 0.0 25 60
r 10.866352 2 1 ack 40 ------- 1 3.0 0.0 26 61
+ 10.866352 1 0 ack 40 ------- 1 3.0 0.0 26 61
- 10.866352 1 0 ack 40 ------- 1 3.0 0.0 26 61
r 10.867184 2 1 ack 40 ------- 1 3.0 0.0 27 62
+ 10.867184 1 0 ack 40 ------- 1 3.0 0.0 27 62
- 10.867184 1 0 ack 40 ------- 1 3.0 0.0 27 62
r 10.869376 3 2 ack 40 ------- 1 3.0 0.0 28 63
+ 10.869376 2 1 ack 40 ------- 1 3.0 0.0 28 63
- 10.869376 2 1 ack 40 ------- 1 3.0 0.0 28 63
r 10.875552 1 0 ack 40 ------- 1 3.0 0.0 25 60
+ 10.875552 0 1 tcp 1040 ------- 1 0.0 3.0 29 64
- 10.875552 0 1 tcp 1040 ------- 1 0.0 3.0 29 64
r 10.876384 1 0 ack 40 ------- 1 3.0 0.0 26 61
+ 10.876384 0 1 tcp 1040 ------- 1 0.0 3.0 30 65
- 10.876384 0 1 tcp 1040 ------- 1 0.0 3.0 30 65
r 10.877216 1 0 ack 40 ------- 1 3.0 0.0 27 62
+ 10.877216 0 1 tcp 1040 ------- 1 0.0 3.0 31 66
- 10.877216 0 1 tcp 1040 ------- 1 0.0 3.0 31 66
r 10.879408 2 1 ack 40 ------- 1 3.0 0.0 28 63
+ 10.879408 1 0 ack 40 ------- 1 3.0 0.0 28 63
- 10.879408 1 0 ack 40 ------- 1 3.0 0.0 28 63
r 10.886384 0 1 tcp 1040 ------- 1 0.0 3.0 29 64
+ 10.886384 1 2 tcp 1040 ------- 1 0.0 3.0 29 64
- 10.886384 1 2 tcp 1040 ------- 1 0.0 3.0 29 64
r 10.887216 0 1 tcp 1040 ------- 1 0.0 3.0 30 65
+ 10.887216 1 2 tcp 1040 ------- 1 0.0 3.0 30 65
- 10.887216 1 2 tcp 1040 ------- 1 0.0 3.0 30 65
r 10.888048 0 1 tcp 1040 ------- 1 0.0 3.0 31 66
+ 10.888048 1 2 tcp 1040 ------- 1 0.0 3.0 31 66
- 10.888048 1 2 tcp 1040 ------- 1 0.0 3.0 31 66
r 10.88944 1 0 ack 40 ------- 1 3.0 0.0 28 63
+ 10.88944 0 1 tcp 1040 ------- 1 0.0 3.0 32 67
- 10.88944 0 1 tcp 1040 ------- 1 0.0 3.0 32 67
+ 10.88944 0 1 tcp 1040 ------- 1 0.0 3.0 33 68
- 10.890272 0 1 tcp 1040 ------- 1 0.0 3.0 33 68
r 10.897216 1 2 tcp 1040 ------- 1 0.0 3.0 29 64
+ 10.897216 2 3 tcp 1040 ------- 1 0.0 3.0 29 64
- 10.897216 2 3 tcp 1040 ------- 1 0.0 3.0 29 64
r 10.898048 1 2 tcp 1040 ------- 1 0.0 3.0 30 65
+ 10.898048 2 3 tcp 1040 ------- 1 0.0 3.0 30 65
- 10.898048 2 3 tcp 1040 ------- 1 0.0 3.0 30 65
r 10.89888 1 2 tcp 1040 ------- 1 0.0 3.0 31 66
+ 10.89888 2 3 tcp 1040 ------- 1 0.0 3.0 31 66
- 10.89888 2 3 tcp 1040 ------- 1 0.0 3.0 31 66
r 10.900272 0 1 tcp 1040 ------- 1 0.0 3.0 32 67
+ 10.900272 1 2 tcp 1040 ------- 1 0.0 3.0 32 67
- 10.900272 1 2 tcp 1040 ------- 1 0.0 3.0 32 67
r 10.901104 0 1 tcp 1040 ------- 1 0.0 3.0 33 68
+ 10.901104 1 2 tcp 1040 ------- 1 0.0 3.0 33 68
- 10.901104 1 2 tcp 1040 ------- 1 0.0 3.0 33 68
r 10.908048 2 3 tcp 1040 ------- 1 0.0 3.0 29 64
+ 10.908048 3 2 ack 40 ------- 1 3.0 0.0 29 69
- 10.908048 3 2 ack 40 ------- 1 3.0 0.0 29 69
r 10.90888 2 3 tcp 1040 ------- 1 0.0 3.0 30 65
+ 10.90888 3 2 ack 40 ------- 1 3.0 0.0 30 70
- 10.90888 3 2 ack 40 ------- 1 3.0 0.0 30 70
r 10.909712 2 3 tcp 1040 ------- 1 0.0 3.0 31 66
+ 10.909712 3 2 ack 40 ------- 1 3.0 0.0 31 71
- 10.909712 3 2 ack 40 ------- 1 3.0 0.0 31 71
r 10.911104 1 2 tcp 1040 ------- 1 0.0 3.0 32 67
+ 10.911104 2 3 tcp 1040 ------- 1 0.0 3.0 32 67
- 10.911104 2 3 tcp 1040 ------- 1 0.0 3.0 32 67
r 10.911936 1 2 tcp 1040 ------- 1 0.0 3.0 33 68
+ 10.911936 2 3 tcp 1040 ------- 1 0.0 3.0 33 68
- 10.911936 2 3 tcp 1040 ------- 1 0.0 3.0 33 68
r 10.91808 3 2 ack 40 ------- 1 3.0 0.0 29 69
+ 10.91808 2 1 ack 40 ------- 1 3.0 0.0 29 69
- 10.91808 2 1 ack 40 ------- 1 3.0 0.0 29 69
r 10.918912 3 2 ack 40 ------- 1 3.0 0.0 30 70
+ 10.918912 2 1 ack 40 ------- 1 3.0 0.0 30 70
- 10.918912 2 1 ack 40 ------- 1 3.0 0.0 30 70
r 10.919744 3 2 ack 40 ------- 1 3.0 0.0 31 71
+ 10.919744 2 1 ack 40 ------- 1 3.0 0.0 31 71
- 10.919744 2 1 ack 40 ------- 1 3.0 0.0 31 71
r 10.921936 2 3 tcp 1040 ------- 1 0.0 3.0 32 67
+ 10.921936 3 2 ack 40 ------- 1 3.0 0.0 32 72
- 10.921936 3 2 ack 40 ------- 1 3.0 0.0 32 72
r 10.922768 2 3 tcp 1040 ------- 1 0.0 3.0 33 68
+ 10.922768 3 2 ack 40 ------- 1 3.0 0.0 33 73
- 10.922768 3 2 ack 40 ------- 1 3.0 0.0 33 73
r 10.928112 2 1 ack 40 ------- 1 3.0 0.0 29 69
+ 10.928112 1 0 ack 40 ------- 1 3.0 0.0 29 69
- 10.928112 1 0 ack 40 ------- 1 3.0 0.0 29 69
r 10.928944 2 1 ack 40 ------- 1 3.0 0.0 30 70
+ 10.928944 1 0 ack 40 ------- 1 3.0 0.0 30 70
- 10.928944 1 0 ack 40 ------- 1 3.0 0.0 30 70
r 10.929776 2 1 ack 40 ------- 1 3.0 0.0 31 71
+ 10.929776 1 0 ack 40 ------- 1 3.0 0.0 31 71
- 10.929776 1 0 ack 40 ------- 1 3.0 0.0 31 71
r 10.931968 3 2 ack 40 ------- 1 3.0 0.0 32 72
+ 10.931968 2 1 ack 40 ------- 1 3.0 0.0 32 72
- 10.931968 2 1 ack 40 ------- 1 3.0 0.0 32 72
r 10.9328 3 2 ack 40 ------- 1 3.0 0.0 33 73
+ 10.9328 2 1 ack 40 ------- 1 3.0 0.0 33 73
- 10.9328 2 1 ack 40 ------- 1 3.0 0.0 33 73
r 10.938144 1 0 ack 40 ------- 1 3.0 0.0 29 69