+ 1 0 1 tcp 40 ------- 1 0.0 3.0 0 0
- 1 0 1 tcp 40 ------- 1 0.0 3.0 0 0
r 1.010032 0 1 tcp 40 ------- 1 0.0 3.0 0 0
+ 1.010032 1 2 tcp 40 ------- 1 0.0 3.0 0 0
- 1.010032 1 2 tcp 40 ------- 1 0.0 3.0 0 0
r 1.110064 1 2 tcp 40 ------- 1 0.0 3.0 0 0
+ 1.110064 2 3 tcp 40 ------- 1 0.0 3.0 0 0
- 1.110064 2 3 tcp 40 ------- 1 0.0 3.0 0 0
r 1.120096 2 3 tcp 40 ------- 1 0.0 3.0 0 0
+ 1.120096 3 2 ack 40 ------- 1 3.0 0.0 0 1
- 1.120096 3 2 ack 40 ------- 1 3.0 0.0 0 1
r 1.130128 3 2 ack 40 ------- 1 3.0 0.0 0 1
+ 1.130128 2 1 ack 40 ------- 1 3.0 0.0 0 1
- 1.130128 2 1 ack 40 ------- 1 3.0 0.0 0 1
r 1.23016 2 1 ack 40 ------- 1 3.0 0.0 0 1
+ 1.23016 1 0 ack 40 ------- 1 3.0 0.0 0 1
- 1.23016 1 0 ack 40 ------- 1 3.0 0.0 0 1
r 1.240192 1 0 ack 40 ------- 1 3.0 0.0 0 1
+ 1.240192 0 1 tcp 1040 ------- 1 0.0 3.0 1 2
- 1.240192 0 1 tcp 1040 ------- 1 0.0 3.0 1 2
+ 1.240192 0 1 tcp 1040 ------- 1 0.0 3.0 2 3
- 1.241024 0 1 tcp 1040 ------- 1 0.0 3.0 2 3
r 1.251024 0 1 tcp 1040 ------- 1 0.0 3.0 1 2
+ 1.251024 1 2 tcp 1040 ------- 1 0.0 3.0 1 2
- 1.251024 1 2 tcp 1040 ------- 1 0.0 3.0 1 2
r 1.251856 0 1 tcp 1040 ------- 1 0.0 3.0 2 3
+ 1.251856 1 2 tcp 1040 ------- 1 0.0 3.0 2 3
- 1.251856 1 2 tcp 1040 ------- 1 0.0 3.0 2 3
r 1.351856 1 2 tcp 1040 ------- 1 0.0 3.0 1 2
+ 1.351856 2 3 tcp 1040 ------- 1 0.0 3.0 1 2
- 1.351856 2 3 tcp 1040 ------- 1 0.0 3.0 1 2
r 1.352688 1 2 tcp 1040 ------- 1 0.0 3.0 2 3
+ 1.352688 2 3 tcp 1040 ------- 1 0.0 3.0 2 3
- 1.352688 2 3 tcp 1040 ------- 1 0.0 3.0 2 3
r 1.362688 2 3 tcp 1040 ------- 1 0.0 3.0 1 2
+ 1.362688 3 2 ack 40 ------- 1 3.0 0.0 1 4
- 1.362688 3 2 ack 40 ------- 1 3.0 0.0 1 4
r 1.36352 2 3 tcp 1040 ------- 1 0.0 3.0 2 3
+ 1.36352 3 2 ack 40 ------- 1 3.0 0.0 2 5
- 1.36352 3 2 ack 40 ------- 1 3.0 0.0 2 5
r 1.37272 3 2 ack 40 ------- 1 3.0 0.0 1 4
+ 1.37272 2 1 ack 40 ------- 1 3.0 0.0 1 4
- 1.37272 2 1 ack 40 ------- 1 3.0 0.0 1 4
r 1.373552 3 2 ack 40 ------- 1 3.0 0.0 2 5
+ 1.373552 2 1 ack 40 ------- 1 3.0 0.0 2 5
- 1.373552 2 1 ack 40 ------- 1 3.0 0.0 2 5
r 1.472752 2 1 ack 40 ------- 1 3.0 0.0 1 4
+ 1.472752 1 0 ack 40 ------- 1 3.0 0.0 1 4
- 1.472752 1 0 ack 40 ------- 1 3.0 0.0 1 4
r 1.473584 2 1 ack 40 ------- 1 3.0 0.0 2 5
+ 1.473584 1 0 ack 40 ------- 1 3.0 0.0 2 5
- 1.473584 1 0 ack 40 ------- 1 3.0 0.0 2 5
r 1.482784 1 0 ack 40 ------- 1 3.0 0.0 1 4
+ 1.482784 0 1 tcp 1040 ------- 1 0.0 3.0 3 6
- 1.482784 0 1 tcp 1040 ------- 1 0.0 3.0 3 6
+ 1.482784 0 1 tcp 1040 ------- 1 0.0 3.0 4 7
r 1.483616 1 0 ack 40 ------- 1 3.0 0.0 2 5
+ 1.483616 0 1 tcp 1040 ------- 1 0.0 3.0 5 8
+ 1.483616 0 1 tcp 1040 ------- 1 0.0 3.0 6 9
- 1.483616 0 1 tcp 1040 ------- 1 0.0 3.0 4 7
- 1.484448 0 1 tcp 1040 ------- 1 0.0 3.0 5 8
- 1.48528 0 1 tcp 1040 ------- 1 0.0 3.0 6 9
r 1.493616 0 1 tcp 1040 ------- 1 0.0 3.0 3 6
+ 1.493616 1 2 tcp 1040 ------- 1 0.0 3.0 3 6
- 1.493616 1 2 tcp 1040 ------- 1 0.0 3.0 3 6
r 1.494448 0 1 tcp 1040 ------- 1 0.0 3.0 4 7
+ 1.494448 1 2 tcp 1040 ------- 1 0.0 3.0 4 7
- 1.494448 1 2 tcp 1040 ------- 1 0.0 3.0 4 7
r 1.49528 0 1 tcp 1040 ------- 1 0.0 3.0 5 8
+ 1.49528 1 2 tcp 1040 ------- 1 0.0 3.0 5 8
- 1.49528 1 2 tcp 1040 ------- 1 0.0 3.0 5 8
r 1.496112 0 1 tcp 1040 ------- 1 0.0 3.0 6 9
+ 1.496112 1 2 tcp 1040 ------- 1 0.0 3.0 6 9
- 1.496112 1 2 tcp 1040 ------- 1 0.0 3.0 6 9
r 1.594448 1 2 tcp 1040 ------- 1 0.0 3.0 3 6
+ 1.594448 2 3 tcp 1040 ------- 1 0.0 3.0 3 6
- 1.594448 2 3 tcp 1040 ------- 1 0.0 3.0 3 6
r 1.59528 1 2 tcp 1040 ------- 1 0.0 3.0 4 7
+ 1.59528 2 3 tcp 1040 ------- 1 0.0 3.0 4 7
- 1.59528 2 3 tcp 1040 ------- 1 0.0 3.0 4 7
r 1.596112 1 2 tcp 1040 ------- 1 0.0 3.0 5 8
+ 1.596112 2 3 tcp 1040 ------- 1 0.0 3.0 5 8
- 1.596112 2 3 tcp 1040 ------- 1 0.0 3.0 5 8
r 1.596944 1 2 tcp 1040 ------- 1 0.0 3.0 6 9
+ 1.596944 2 3 tcp 1040 ------- 1 0.0 3.0 6 9
- 1.596944 2 3 tcp 1040 ------- 1 0.0 3.0 6 9
r 1.60528 2 3 tcp 1040 ------- 1 0.0 3.0 3 6
+ 1.60528 3 2 ack 40 ------- 1 3.0 0.0 3 10
- 1.60528 3 2 ack 40 ------- 1 3.0 0.0 3 10
r 1.606112 2 3 tcp 1040 ------- 1 0.0 3.0 4 7
+ 1.606112 3 2 ack 40 ------- 1 3.0 0.0 4 11
- 1.606112 3 2 ack 40 ------- 1 3.0 0.0 4 11
r 1.606944 2 3 tcp 1040 ------- 1 0.0 3.0 5 8
+ 1.606944 3 2 ack 40 ------- 1 3.0 0.0 5 12
- 1.606944 3 2 ack 40 ------- 1 3.0 0.0 5 12
r 1.607776 2 3 tcp 1040 ------- 1 0.0 3.0 6 9
+ 1.607776 3 2 ack 40 ------- 1 3.0 0.0 6 13
- 1.607776 3 2 ack 40 ------- 1 3.0 0.0 6 13
r 1.615312 3 2 ack 40 ------- 1 3.0 0.0 3 10
+ 1.615312 2 1 ack 40 ------- 1 3.0 0.0 3 10
- 1.615312 2 1 ack 40 ------- 1 3.0 0.0 3 10
r 1.616144 3 2 ack 40 ------- 1 3.0 0.0 4 11
+ 1.616144 2 1 ack 40 ------- 1 3.0 0.0 4 11
- 1.616144 2 1 ack 40 ------- 1 3.0 0.0 4 11
r 1.616976 3 2 ack 40 ------- 1 3.0 0.0 5 12
+ 1.616976 2 1 ack 40 ------- 1 3.0 0.0 5 12
- 1.616976 2 1 ack 40 ------- 1 3.0 0.0 5 12
r 1.617808 3 2 ack 40 ------- 1 3.0 0.0 6 13
+ 1.617808 2 1 ack 40 ------- 1 3.0 0.0 6 13
- 1.617808 2 1 ack 40 ------- 1 3.0 0.0 6 13
r 1.715344 2 1 ack 40 ------- 1 3.0 0.0 3 10
+ 1.715344 1 0 ack 40 ------- 1 3.0 0.0 3 10
- 1.715344 1 0 ack 40 ------- 1 3.0 0.0 3 10
r 1.716176 2 1 ack 40 ------- 1 3.0 0.0 4 11
+ 1.716176 1 0 ack 40 ------- 1 3.0 0.0 4 11
- 1.716176 1 0 ack 40 ------- 1 3.0 0.0 4 11
r 1.717008 2 1 ack 40 ------- 1 3.0 0.0 5 12
+ 1.717008 1 0 ack 40 ------- 1 3.0 0.0 5 12
- 1.717008 1 0 ack 40 ------- 1 3.0 0.0 5 12
r 1.71784 2 1 ack 40 ------- 1 3.0 0.0 6 13
+ 1.71784 1 0 ack 40 ------- 1 3.0 0.0 6 13
- 1.71784 1 0 ack 40 ------- 1 3.0 0.0 6 13
r 1.725376 1 0 ack 40 ------- 1 3.0 0.0 3 10
+ 1.725376 0 1 tcp 1040 ------- 1 0.0 3.0 7 14
- 1.725376 0 1 tcp 1040 ------- 1 0.0 3.0 7 14
+ 1.725376 0 1 tcp 1040 ------- 1 0.0 3.0 8 15
r 1.726208 1 0 ack 40 ------- 1 3.0 0.0 4 11
+ 1.726208 0 1 tcp 1040 ------- 1 0.0 3.0 9 16
+ 1.726208 0 1 tcp 1040 ------- 1 0.0 3.0 10 17
- 1.726208 0 1 tcp 1040 ------- 1 0.0 3.0 8 15
r 1.72704 1 0 ack 40 ------- 1 3.0 0.0 5 12
+ 1.72704 0 1 tcp 1040 ------- 1 0.0 3.0 11 18
+ 1.72704 0 1 tcp 1040 ------- 1 0.0 3.0 12 19
- 1.72704 0 1 tcp 1040 ------- 1 0.0 3.0 9 16
r 1.727872 1 0 ack 40 ------- 1 3.0 0.0 6 13
+ 1.727872 0 1 tcp 1040 ------- 1 0.0 3.0 13 20
+ 1.727872 0 1 tcp 1040 ------- 1 0.0 3.0 14 21
- 1.727872 0 1 tcp 1040 ------- 1 0.0 3.0 10 17
- 1.728704 0 1 tcp 1040 ------- 1 0.0 3.0 11 18
- 1.729536 0 1 tcp 1040 ------- 1 0.0 3.0 12 19
- 1.730368 0 1 tcp 1040 ------- 1 0.0 3.0 13 20
- 1.7312 0 1 tcp 1040 ------- 1 0.0 3.0 14 21
r 1.736208 0 1 tcp 1040 ------- 1 0.0 3.0 7 14
+ 1.736208 1 2 tcp 1040 ------- 1 0.0 3.0 7 14
- 1.736208 1 2 tcp 1040 ------- 1 0.0 3.0 7 14
r 1.73704 0 1 tcp 1040 ------- 1 0.0 3.0 8 15
+ 1.73704 1 2 tcp 1040 ------- 1 0.0 3.0 8 15
- 1.73704 1 2 tcp 1040 ------- 1 0.0 3.0 8 15
r 1.737872 0 1 tcp 1040 ------- 1 0.0 3.0 9 16
+ 1.737872 1 2 tcp 1040 ------- 1 0.0 3.0 9 16
- 1.737872 1 2 tcp 1040 ------- 1 0.0 3.0 9 16
r 1.738704 0 1 tcp 1040 ------- 1 0.0 3.0 10 17
+ 1.738704 1 2 tcp 1040 ------- 1 0.0 3.0 10 17
- 1.738704 1 2 tcp 1040 ------- 1 0.0 3.0 10 17
r 1.739536 0 1 tcp 1040 ------- 1 0.0 3.0 11 18
+ 1.739536 1 2 tcp 1040 ------- 1 0.0 3.0 11 18
- 1.739536 1 2 tcp 1040 ------- 1 0.0 3.0 11 18
r 1.740368 0 1 tcp 1040 ------- 1 0.0 3.0 12 19
+ 1.740368 1 2 tcp 1040 ------- 1 0.0 3.0 12 19
- 1.740368 1 2 tcp 1040 ------- 1 0.0 3.0 12 19
r 1.7412 0 1 tcp 1040 ------- 1 0.0 3.0 13 20
+ 1.7412 1 2 tcp 1040 ------- 1 0.0 3.0 13 20
- 1.7412 1 2 tcp 1040 ------- 1 0.0 3.0 13 20
r 1.742032 0 1 tcp 1040 ------- 1 0.0 3.0 14 21
+ 1.742032 1 2 tcp 1040 ------- 1 0.0 3.0 14 21
- 1.742032 1 2 tcp 1040 ------- 1 0.0 3.0 14 21
r 1.83704 1 2 tcp 1040 ------- 1 0.0 3.0 7 14
+ 1.83704 2 3 tcp 1040 ------- 1 0.0 3.0 7 14
- 1.83704 2 3 tcp 1040 ------- 1 0.0 3.0 7 14
r 1.837872 1 2 tcp 1040 ------- 1 0.0 3.0 8 15
+ 1.837872 2 3 tcp 1040 ------- 1 0.0 3.0 8 15
- 1.837872 2 3 tcp 1040 ------- 1 0.0 3.0 8 15
r 1.838704 1 2 tcp 1040 ------- 1 0.0 3.0 9 16
+ 1.838704 2 3 tcp 1040 ------- 1 0.0 3.0 9 16
- 1.838704 2 3 tcp 1040 ------- 1 0.0 3.0 9 16
r 1.839536 1 2 tcp 1040 ------- 1 0.0 3.0 10 17
+ 1.839536 2 3 tcp 1040 ------- 1 0.0 3.0 10 17
- 1.839536 2 3 tcp 1040 ------- 1 0.0 3.0 10 17
r 1.840368 1 2 tcp 1040 ------- 1 0.0 3.0 11 18
+ 1.840368 2 3 tcp 1040 ------- 1 0.0 3.0 11 18
- 1.840368 2 3 tcp 1040 ------- 1 0.0 3.0 11 18
r 1.8412 1 2 tcp 1040 ------- 1 0.0 3.0 12 19
+ 1.8412 2 3 tcp 1040 ------- 1 0.0 3.0 12 19
- 1.8412 2 3 tcp 1040 ------- 1 0.0 3.0 12 19
r 1.842032 1 2 tcp 1040 ------- 1 0.0 3.0 13 20
+ 1.842032 2 3 tcp 1040 ------- 1 0.0 3.0 13 20
- 1.842032 2 3 tcp 1040 ------- 1 0.0 3.0 13 20
r 1.842864 1 2 tcp 1040 ------- 1 0.0 3.0 14 21
+ 1.842864 2 3 tcp 1040 ------- 1 0.0 3.0 14 21
- 1.842864 2 3 tcp 1040 ------- 1 0.0 3.0 14 21
r 1.847872 2 3 tcp 1040 ------- 1 0.0 3.0 7 14
+ 1.847872 3 2 ack 40 ------- 1 3.0 0.0 7 22
- 1.847872 3 2 ack 40 ------- 1 3.0 0.0 7 22
r 1.848704 2 3 tcp 1040 ------- 1 0.0 3.0 8 15
+ 1.848704 3 2 ack 40 ------- 1 3.0 0.0 8 23
- 1.848704 3 2 ack 40 ------- 1 3.0 0.0 8 23
r 1.849536 2 3 tcp 1040 ------- 1 0.0 3.0 9 16
+ 1.849536 3 2 ack 40 ------- 1 3.0 0.0 9 24
- 1.849536 3 2 ack 40 ------- 1 3.0 0.0 9 24
r 1.850368 2 3 tcp 1040 ------- 1 0.0 3.0 10 17
+ 1.850368 3 2 ack 40 ------- 1 3.0 0.0 10 25
- 1.850368 3 2 ack 40 ------- 1 3.0 0.0 10 25
r 1.8512 2 3 tcp 1040 ------- 1 0.0 3.0 11 18
+ 1.8512 3 2 ack 40 ------- 1 3.0 0.0 11 26
- 1.8512 3 2 ack 40 ------- 1 3.0 0.0 11 26
r 1.852032 2 3 tcp 1040 ------- 1 0.0 3.0 12 19
+ 1.852032 3 2 ack 40 ------- 1 3.0 0.0 12 27
- 1.852032 3 2 ack 40 ------- 1 3.0 0.0 12 27
r 1.852864 2 3 tcp 1040 ------- 1 0.0 3.0 13 20
+ 1.852864 3 2 ack 40 ------- 1 3.0 0.0 13 28
- 1.852864 3 2 ack 40 ------- 1 3.0 0.0 13 28
r 1.853696 2 3 tcp 1040 ------- 1 0.0 3.0 14 21
+ 1.853696 3 2 ack 40 ------- 1 3.0 0.0 14 29
- 1.853696 3 2 ack 40 ------- 1 3.0 0.0 14 29
r 1.857904 3 2 ack 40 ------- 1 3.0 0.0 7 22
+ 1.857904 2 1 ack 40 ------- 1 3.0 0.0 7 22
- 1.857904 2 1 ack 40 ------- 1 3.0 0.0 7 22
r 1.858736 3 2 ack 40 ------- 1 3.0 0.0 8 23
+ 1.858736 2 1 ack 40 ------- 1 3.0 0.0 8 23
- 1.858736 2 1 ack 40 ------- 1 3.0 0.0 8 23
r 1.859568 3 2 ack 40 ------- 1 3.0 0.0 9 24
+ 1.859568 2 1 ack 40 ------- 1 3.0 0.0 9 24
- 1.859568 2 1 ack 40 ------- 1 3.0 0.0 9 24
r 1.8604 3 2 ack 40 ------- 1 3.0 0.0 10 25
+ 1.8604 2 1 ack 40 ------- 1 3.0 0.0 10 25
- 1.8604 2 1 ack 40 ------- 1 3.0 0.0 10 25
r 1.861232 3 2 ack 40 ------- 1 3.0 0.0 11 26
+ 1.861232 2 1 ack 40 ------- 1 3.0 0.0 11 26
- 1.861232 2 1 ack 40 ------- 1 3.0 0.0 11 26
r 1.862064 3 2 ack 40 ------- 1 3.0 0.0 12 27
+ 1.862064 2 1 ack 40 ------- 1 3.0 0.0 12 27
- 1.862064 2 1 ack 40 ------- 1 3.0 0.0 12 27
r 1.862896 3 2 ack 40 ------- 1 3.0 0.0 13 28
+ 1.862896 2 1 ack 40 ------- 1 3.0 0.0 13 28
- 1.862896 2 1 ack 40 ------- 1 3.0 0.0 13 28
r 1.863728 3 2 ack 40 ------- 1 3.0 0.0 14 29
+ 1.863728 2 1 ack 40 ------- 1 3.0 0.0 14 29
- 1.863728 2 1 ack 40 ------- 1 3.0 0.0 14 29
r 1.957936 2 1 ack 40 ------- 1 3.0 0.0 7 22
+ 1.957936 1 0 ack 40 ------- 1 3.0 0.0 7 22
- 1.957936 1 0 ack 40 ------- 1 3.0 0.0 7 22
r 1.958768 2 1 ack 40 ------- 1 3.0 0.0 8 23
+ 1.958768 1 0 ack 40 ------- 1 3.0 0.0 8 23
- 1.958768 1 0 ack 40 ------- 1 3.0 0.0 8 23
r 1.9596 2 1 ack 40 ------- 1 3.0 0.0 9 24
+ 1.9596 1 0 ack 40 ------- 1 3.0 0.0 9 24
- 1.9596 1 0 ack 40 ------- 1 3.0 0.0 9 24
r 1.960432 2 1 ack 40 ------- 1 3.0 0.0 10 25
+ 1.960432 1 0 ack 40 ------- 1 3.0 0.0 10 25
- 1.960432 1 0 ack 40 ------- 1 3.0 0.0 10 25
r 1.961264 2 1 ack 40 ------- 1 3.0 0.0 11 26
+ 1.961264 1 0 ack 40 ------- 1 3.0 0.0 11 26
- 1.961264 1 0 ack 40 ------- 1 3.0 0.0 11 26
r 1.962096 2 1 ack 40 ------- 1 3.0 0.0 12 27
+ 1.962096 1 0 ack 40 ------- 1 3.0 0.0 12 27
- 1.962096 1 0 ack 40 ------- 1 3.0 0.0 12 27
r 1.962928 2 1 ack 40 ------- 1 3.0 0.0 13 28
+ 1.962928 1 0 ack 40 ------- 1 3.0 0.0 13 28
- 1.962928 1 0 ack 40 ------- 1 3.0 0.0 13 28
r 1.96376 2 1 ack 40 ------- 1 3.0 0.0 14 29
+ 1.96376 1 0 ack 40 ------- 1 3.0 0.0 14 29
- 1.96376 1 0 ack 40 ------- 1 3.0 0.0 14 29
r 1.967968 1 0 ack 40 ------- 1 3.0 0.0 7 22
+ 1.967968 0 1 tcp 1040 ------- 1 0.0 3.0 15 30
- 1.967968 0 1 tcp 1040 ------- 1 0.0 3.0 15 30
+ 1.967968 0 1 tcp 1040 ------- 1 0.0 3.0 16 31
r 1.9688 1 0 ack 40 ------- 1 3.0 0.0 8 23
+ 1.9688 0 1 tcp 1040 ------- 1 0.0 3.0 17 32
+ 1.9688 0 1 tcp 1040 ------- 1 0.0 3.0 18 33
- 1.9688 0 1 tcp 1040 ------- 1 0.0 3.0 16 31
r 1.969632 1 0 ack 40 ------- 1 3.0 0.0 9 24
+ 1.969632 0 1 tcp 1040 ------- 1 0.0 3.0 19 34
+ 1.969632 0 1 tcp 1040 ------- 1 0.0 3.0 20 35
- 1.969632 0 1 tcp 1040 ------- 1 0.0 3.0 17 32
r 1.970464 1 0 ack 40 ------- 1 3.0 0.0 10 25
+ 1.970464 0 1 tcp 1040 ------- 1 0.0 3.0 21 36
+ 1.970464 0 1 tcp 1040 ------- 1 0.0 3.0 22 37
- 1.970464 0 1 tcp 1040 ------- 1 0.0 3.0 18 33
r 1.971296 1 0 ack 40 ------- 1 3.0 0.0 11 26
+ 1.971296 0 1 tcp 1040 ------- 1 0.0 3.0 23 38
+ 1.971296 0 1 tcp 1040 ------- 1 0.0 3.0 24 39
- 1.971296 0 1 tcp 1040 ------- 1 0.0 3.0 19 34
r 1.972128 1 0 ack 40 ------- 1 3.0 0.0 12 27
+ 1.972128 0 1 tcp 1040 ------- 1 0.0 3.0 25 40
+ 1.972128 0 1 tcp 1040 ------- 1 0.0 3.0 26 41
- 1.972128 0 1 tcp 1040 ------- 1 0.0 3.0 20 35
r 1.97296 1 0 ack 40 ------- 1 3.0 0.0 13 28
+ 1.97296 0 1 tcp 1040 ------- 1 0.0 3.0 27 42
+ 1.97296 0 1 tcp 1040 ------- 1 0.0 3.0 28 43
- 1.97296 0 1 tcp 1040 ------- 1 0.0 3.0 21 36
r 1.973792 1 0 ack 40 ------- 1 3.0 0.0 14 29
+ 1.973792 0 1 tcp 1040 ------- 1 0.0 3.0 29 44
+ 1.973792 0 1 tcp 1040 ------- 1 0.0 3.0 30 45
- 1.973792 0 1 tcp 1040 ------- 1 0.0 3.0 22 37
- 1.974624 0 1 tcp 1040 ------- 1 0.0 3.0 23 38
- 1.975456 0 1 tcp 1040 ------- 1 0.0 3.0 24 39
- 1.976288 0 1 tcp 1040 ------- 1 0.0 3.0 25 40
- 1.97712 0 1 tcp 1040 ------- 1 0.0 3.0 26 41
- 1.977952 0 1 tcp 1040 ------- 1 0.0 3.0 27 42
- 1.978784 0 1 tcp 1040 ------- 1 0.0 3.0 28 43
r 1.9788 0 1 tcp 1040 ------- 1 0.0 3.0 15 30
+ 1.9788 1 2 tcp 1040 ------- 1 0.0 3.0 15 30
- 1.9788 1 2 tcp 1040 ------- 1 0.0 3.0 15 30
- 1.979616 0 1 tcp 1040 ------- 1 0.0 3.0 29 44
r 1.979632 0 1 tcp 1040 ------- 1 0.0 3.0 16 31
+ 1.979632 1 2 tcp 1040 ------- 1 0.0 3.0 16 31
- 1.979632 1 2 tcp 1040 ------- 1 0.0 3.0 16 31
- 1.980448 0 1 tcp 1040 ------- 1 0.0 3.0 30 45
r 1.980464 0 1 tcp 1040 ------- 1 0.0 3.0 17 32
+ 1.980464 1 2 tcp 1040 ------- 1 0.0 3.0 17 32
- 1.980464 1 2 tcp 1040 ------- 1 0.0 3.0 17 32
r 1.981296 0 1 tcp 1040 ------- 1 0.0 3.0 18 33
+ 1.981296 1 2 tcp 1040 ------- 1 0.0 3.0 18 33
- 1.981296 1 2 tcp 1040 ------- 1 0.0 3.0 18 33
r 1.982128 0 1 tcp 1040 ------- 1 0.0 3.0 19 34
+ 1.982128 1 2 tcp 1040 ------- 1 0.0 3.0 19 34
- 1.982128 1 2 tcp 1040 ------- 1 0.0 3.0 19 34
r 1.98296 0 1 tcp 1040 ------- 1 0.0 3.0 20 35
+ 1.98296 1 2 tcp 1040 ------- 1 0.0 3.0 20 35
- 1.98296 1 2 tcp 1040 ------- 1 0.0 3.0 20 35
r 1.983792 0 1 tcp 1040 ------- 1 0.0 3.0 21 36
+ 1.983792 1 2 tcp 1040 ------- 1 0.0 3.0 21 36
- 1.983792 1 2 tcp 1040 ------- 1 0.0 3.0 21 36
r 1.984624 0 1 tcp 1040 ------- 1 0.0 3.0 22 37
+ 1.984624 1 2 tcp 1040 ------- 1 0.0 3.0 22 37
- 1.984624 1 2 tcp 1040 ------- 1 0.0 3.0 22 37
r 1.985456 0 1 tcp 1040 ------- 1 0.0 3.0 23 38
+ 1.985456 1 2 tcp 1040 ------- 1 0.0 3.0 23 38
- 1.985456 1 2 tcp 1040 ------- 1 0.0 3.0 23 38
r 1.986288 0 1 tcp 1040 ------- 1 0.0 3.0 24 39
+ 1.986288 1 2 tcp 1040 ------- 1 0.0 3.0 24 39
- 1.986288 1 2 tcp 1040 ------- 1 0.0 3.0 24 39
r 1.98712 0 1 tcp 1040 ------- 1 0.0 3.0 25 40
+ 1.98712 1 2 tcp 1040 ------- 1 0.0 3.0 25 40
- 1.98712 1 2 tcp 1040 ------- 1 0.0 3.0 25 40
r 1.987952 0 1 tcp 1040 ------- 1 0.0 3.0 26 41
+ 1.987952 1 2 tcp 1040 ------- 1 0.0 3.0 26 41
- 1.987952 1 2 tcp 1040 ------- 1 0.0 3.0 26 41
r 1.988784 0 1 tcp 1040 ------- 1 0.0 3.0 27 42
+ 1.988784 1 2 tcp 1040 ------- 1 0.0 3.0 27 42
- 1.988784 1 2 tcp 1040 ------- 1 0.0 3.0 27 42
r 1.989616 0 1 tcp 1040 ------- 1 0.0 3.0 28 43
+ 1.989616 1 2 tcp 1040 ------- 1 0.0 3.0 28 43
- 1.989616 1 2 tcp 1040 ------- 1 0.0 3.0 28 43
r 1.990448 0 1 tcp 1040 ------- 1 0.0 3.0 29 44
+ 1.990448 1 2 tcp 1040 ------- 1 0.0 3.0 29 44
- 1.990448 1 2 tcp 1040 ------- 1 0.0 3.0 29 44
r 1.99128 0 1 tcp 1040 ------- 1 0.0 3.0 30 45
+ 1.99128 1 2 tcp 1040 ------- 1 0.0 3.0 30 45
- 1.99128 1 2 tcp 1040 ------- 1 0.0 3.0 30 45
r 2.079632 1 2 tcp 1040 ------- 1 0.0 3.0 15 30
+ 2.079632 2 3 tcp 1040 ------- 1 0.0 3.0 15 30
- 2.079632 2 3 tcp 1040 ------- 1 0.0 3.0 15 30
r 2.080464 1 2 tcp 1040 ------- 1 0.0 3.0 16 31
+ 2.080464 2 3 tcp 1040 ------- 1 0.0 3.0 16 31
- 2.080464 2 3 tcp 1040 ------- 1 0.0 3.0 16 31
r 2.081296 1 2 tcp 1040 ------- 1 0.0 3.0 17 32
+ 2.081296 2 3 tcp 1040 ------- 1 0.0 3.0 17 32
- 2.081296 2 3 tcp 1040 ------- 1 0.0 3.0 17 32
r 2.082128 1 2 tcp 1040 ------- 1 0.0 3.0 18 33
+ 2.082128 2 3 tcp 1040 ------- 1 0.0 3.0 18 33
- 2.082128 2 3 tcp 1040 ------- 1 0.0 3.0 18 33
r 2.08296 1 2 tcp 1040 ------- 1 0.0 3.0 19 34
+ 2.08296 2 3 tcp 1040 ------- 1 0.0 3.0 19 34
- 2.08296 2 3 tcp 1040 ------- 1 0.0 3.0 19 34
r 2.083792 1 2 tcp 1040 ------- 1 0.0 3.0 20 35
+ 2.083792 2 3 tcp 1040 ------- 1 0.0 3.0 20 35
- 2.083792 2 3 tcp 1040 ------- 1 0.0 3.0 20 35
r 2.084624 1 2 tcp 1040 ------- 1 0.0 3.0 21 36
+ 2.084624 2 3 tcp 1040 ------- 1 0.0 3.0 21 36
- 2.084624 2 3 tcp 1040 ------- 1 0.0 3.0 21 36
r 2.085456 1 2 tcp 1040 ------- 1 0.0 3.0 22 37
+ 2.085456 2 3 tcp 1040 ------- 1 0.0 3.0 22 37
- 2.085456 2 3 tcp 1040 ------- 1 0.0 3.0 22 37
r 2.086288 1 2 tcp 1040 ------- 1 0.0 3.0 23 38
+ 2.086288 2 3 tcp 1040 ------- 1 0.0 3.0 23 38
- 2.086288 2 3 tcp 1040 ------- 1 0.0 3.0 23 38
r 2.08712 1 2 tcp 1040 ------- 1 0.0 3.0 24 39
+ 2.08712 2 3 tcp 1040 ------- 1 0.0 3.0 24 39
- 2.08712 2 3 tcp 1040 ------- 1 0.0 3.0 24 39
r 2.087952 1 2 tcp 1040 ------- 1 0.0 3.0 25 40
+ 2.087952 2 3 tcp 1040 ------- 1 0.0 3.0 25 40
- 2.087952 2 3 tcp 1040 ------- 1 0.0 3.0 25 40
r 2.088784 1 2 tcp 1040 ------- 1 0.0 3.0 26 41
+ 2.088784 2 3 tcp 1040 ------- 1 0.0 3.0 26 41
- 2.088784 2 3 tcp 1040 ------- 1 0.0 3.0 26 41
r 2.089616 1 2 tcp 1040 ------- 1 0.0 3.0 27 42
+ 2.089616 2 3 tcp 1040 ------- 1 0.0 3.0 27 42
- 2.089616 2 3 tcp 1040 ------- 1 0.0 3.0 27 42
r 2.090448 1 2 tcp 1040 ------- 1 0.0 3.0 28 43
+ 2.090448 2 3 tcp 1040 ------- 1 0.0 3.0 28 43
- 2.090448 2 3 tcp 1040 ------- 1 0.0 3.0 28 43
r 2.090464 2 3 tcp 1040 ------- 1 0.0 3.0 15 30
+ 2.090464 3 2 ack 40 ------- 1 3.0 0.0 15 46
- 2.090464 3 2 ack 40 ------- 1 3.0 0.0 15 46
r 2.09128 1 2 tcp 1040 ------- 1 0.0 3.0 29 44
+ 2.09128 2 3 tcp 1040 ------- 1 0.0 3.0 29 44
- 2.09128 2 3 tcp 1040 ------- 1 0.0 3.0 29 44
r 2.091296 2 3 tcp 1040 ------- 1 0.0 3.0 16 31
+ 2.091296 3 2 ack 40 ------- 1 3.0 0.0 16 47
- 2.091296 3 2 ack 40 ------- 1 3.0 0.0 16 47
r 2.092112 1 2 tcp 1040 ------- 1 0.0 3.0 30 45
+ 2.092112 2 3 tcp 1040 ------- 1 0.0 3.0 30 45
- 2.092112 2 3 tcp 1040 ------- 1 0.0 3.0 30 45
r 2.092128 2 3 tcp 1040 ------- 1 0.0 3.0 17 32
+ 2.092128 3 2 ack 40 ------- 1 3.0 0.0 17 48
- 2.092128 3 2 ack 40 ------- 1 3.0 0.0 17 48
r 2.09296 2 3 tcp 1040 ------- 1 0.0 3.0 18 33
+ 2.09296 3 2 ack 40 ------- 1 3.0 0.0 18 49
- 2.09296 3 2 ack 40 ------- 1 3.0 0.0 18 49
r 2.093792 2 3 tcp 1040 ------- 1 0.0 3.0 19 34
+ 2.093792 3 2 ack 40 ------- 1 3.0 0.0 19 50
- 2.093792 3 2 ack 40 ------- 1 3.0 0.0 19 50
r 2.094624 2 3 tcp 1040 ------- 1 0.0 3.0 20 35
+ 2.094624 3 2 ack 40 ------- 1 3.0 0.0 20 51
- 2.094624 3 2 ack 40 ------- 1 3.0 0.0 20 51
r 2.095456 2 3 tcp 1040 ------- 1 0.0 3.0 21 36
+ 2.095456 3 2 ack 40 ------- 1 3.0 0.0 21 52
- 2.095456 3 2 ack 40 ------- 1 3.0 0.0 21 52
r 2.096288 2 3 tcp 1040 ------- 1 0.0 3.0 22 37
+ 2.096288 3 2 ack 40 ------- 1 3.0 0.0 22 53
- 2.096288 3 2 ack 40 ------- 1 3.0 0.0 22 53
r 2.09712 2 3 tcp 1040 ------- 1 0.0 3.0 23 38
+ 2.09712 3 2 ack 40 ------- 1 3.0 0.0 23 54
- 2.09712 3 2 ack 40 ------- 1 3.0 0.0 23 54
r 2.097952 2 3 tcp 1040 ------- 1 0.0 3.0 24 39
+ 2.097952 3 2 ack 40 ------- 1 3.0 0.0 24 55
- 2.097952 3 2 ack 40 ------- 1 3.0 0.0 24 55
r 2.098784 2 3 tcp 1040 ------- 1 0.0 3.0 25 40
+ 2.098784 3 2 ack 40 ------- 1 3.0 0.0 25 56
- 2.098784 3 2 ack 40 ------- 1 3.0 0.0 25 56
r 2.099616 2 3 tcp 1040 ------- 1 0.0 3.0 26 41
+ 2.099616 3 2 ack 40 ------- 1 3.0 0.0 26 57
- 2.099616 3 2 ack 40 ------- 1 3.0 0.0 26 57
r 2.100448 2 3 tcp 1040 ------- 1 0.0 3.0 27 42
+ 2.100448 3 2 ack 40 ------- 1 3.0 0.0 27 58
- 2.100448 3 2 ack 40 ------- 1 3.0 0.0 27 58
r 2.100496 3 2 ack 40 ------- 1 3.0 0.0 15 46
+ 2.100496 2 1 ack 40 ------- 1 3.0 0.0 15 46
- 2.100496 2 1 ack 40 ------- 1 3.0 0.0 15 46
r 2.10128 2 3 tcp 1040 ------- 1 0.0 3.0 28 43
+ 2.10128 3 2 ack 40 ------- 1 3.0 0.0 28 59
- 2.10128 3 2 ack 40 ------- 1 3.0 0.0 28 59
r 2.101328 3 2 ack 40 ------- 1 3.0 0.0 16 47
+ 2.101328 2 1 ack 40 ------- 1 3.0 0.0 16 47
- 2.101328 2 1 ack 40 ------- 1 3.0 0.0 16 47
r 2.102112 2 3 tcp 1040 ------- 1 0.0 3.0 29 44
+ 2.102112 3 2 ack 40 ------- 1 3.0 0.0 29 60
- 2.102112 3 2 ack 40 ------- 1 3.0 0.0 29 60
r 2.10216 3 2 ack 40 ------- 1 3.0 0.0 17 48
+ 2.10216 2 1 ack 40 ------- 1 3.0 0.0 17 48
- 2.10216 2 1 ack 40 ------- 1 3.0 0.0 17 48
r 2.102944 2 3 tcp 1040 ------- 1 0.0 3.0 30 45
+ 2.102944 3 2 ack 40 ------- 1 3.0 0.0 30 61
- 2.102944 3 2 ack 40 ------- 1 3.0 0.0 30 61
r 2.102992 3 2 ack 40 ------- 1 3.0 0.0 18 49
+ 2.102992 2 1 ack 40 ------- 1 3.0 0.0 18 49
- 2.102992 2 1 ack 40 ------- 1 3.0 0.0 18 49
r 2.103824 3 2 ack 40 ------- 1 3.0 0.0 19 50
+ 2.103824 2 1 ack 40 ------- 1 3.0 0.0 19 50
- 2.103824 2 1 ack 40 ------- 1 3.0 0.0 19 50
r 2.104656 3 2 ack 40 ------- 1 3.0 0.0 20 51
+ 2.104656 2 1 ack 40 ------- 1 3.0 0.0 20 51
- 2.104656 2 1 ack 40 ------- 1 3.0 0.0 20 51
r 2.105488 3 2 ack 40 ------- 1 3.0 0.0 21 52
+ 2.105488 2 1 ack 40 ------- 1 3.0 0.0 21 52
- 2.105488 2 1 ack 40 ------- 1 3.0 0.0 21 52
r 2.10632 3 2 ack 40 ------- 1 3.0 0.0 22 53
+ 2.10632 2 1 ack 40 ------- 1 3.0 0.0 22 53
- 2.10632 2 1 ack 40 ------- 1 3.0 0.0 22 53
r 2.107152 3 2 ack 40 ------- 1 3.0 0.0 23 54
+ 2.107152 2 1 ack 40 ------- 1 3.0 0.0 23 54
- 2.107152 2 1 ack 40 ------- 1 3.0 0.0 23 54
r 2.107984 3 2 ack 40 ------- 1 3.0 0.0 24 55
+ 2.107984 2 1 ack 40 ------- 1 3.0 0.0 24 55
- 2.107984 2 1 ack 40 ------- 1 3.0 0.0 24 55
r 2.108816 3 2 ack 40 ------- 1 3.0 0.0 25 56
+ 2.108816 2 1 ack 40 ------- 1 3.0 0.0 25 56
- 2.108816 2 1 ack 40 ------- 1 3.0 0.0 25 56
r 2.109648 3 2 ack 40 ------- 1 3.0 0.0 26 57
+ 2.109648 2 1 ack 40 ------- 1 3.0 0.0 26 57
- 2.109648 2 1 ack 40 ------- 1 3.0 0.0 26 57
r 2.11048 3 2 ack 40 ------- 1 3.0 0.0 27 58
+ 2.11048 2 1 ack 40 ------- 1 3.0 0.0 27 58
- 2.11048 2 1 ack 40 ------- 1 3.0 0.0 27 58
r 2.111312 3 2 ack 40 ------- 1 3.0 0.0 28 59
+ 2.111312 2 1 ack 40 ------- 1 3.0 0.0 28 59
- 2.111312 2 1 ack 40 ------- 1 3.0 0.0 28 59
r 2.112144 3 2 ack 40 ------- 1 3.0 0.0 29 60
+ 2.112144 2 1 ack 40 ------- 1 3.0 0.0 29 60
- 2.112144 2 1 ack 40 ------- 1 3.0 0.0 29 60
r 2.112976 3 2 ack 40 ------- 1 3.0 0.0 30 61
+ 2.112976 2 1 ack 40 ------- 1 3.0 0.0 30 61
- 2.112976 2 1 ack 40 ------- 1 3.0 0.0 30 61
r 2.200528 2 1 ack 40 ------- 1 3.0 0.0 15 46
+ 2.200528 1 0 ack 40 ------- 1 3.0 0.0 15 46
- 2.200528 1 0 ack 40 ------- 1 3.0 0.0 15 46
r 2.20136 2 1 ack 40 ------- 1 3.0 0.0 16 47
+ 2.20136 1 0 ack 40 ------- 1 3.0 0.0 16 47
- 2.20136 1 0 ack 40 ------- 1 3.0 0.0 16 47
r 2.202192 2 1 ack 40 ------- 1 3.0 0.0 17 48
+ 2.202192 1 0 ack 40 ------- 1 3.0 0.0 17 48
- 2.202192 1 0 ack 40 ------- 1 3.0 0.0 17 48
r 2.203024 2 1 ack 40 ------- 1 3.0 0.0 18 49
+ 2.203024 1 0 ack 40 ------- 1 3.0 0.0 18 49
- 2.203024 1 0 ack 40 ------- 1 3.0 0.0 18 49
r 2.203856 2 1 ack 40 ------- 1 3.0 0.0 19 50
+ 2.203856 1 0 ack 40 ------- 1 3.0 0.0 19 50
- 2.203856 1 0 ack 40 ------- 1 3.0 0.0 19 50
r 2.204688 2 1 ack 40 ------- 1 3.0 0.0 20 51
+ 2.204688 1 0 ack 40 ------- 1 3.0 0.0 20 51
- 2.204688 1 0 ack 40 ------- 1 3.0 0.0 20 51
r 2.20552 2 1 ack 40 ------- 1 3.0 0.0 21 52
+ 2.20552 1 0 ack 40 ------- 1 3.0 0.0 21 52
- 2.20552 1 0 ack 40 ------- 1 3.0 0.0 21 52
r 2.206352 2 1 ack 40 ------- 1 3.0 0.0 22 53
+ 2.206352 1 0 ack 40 ------- 1 3.0 0.0 22 53
- 2.206352 1 0 ack 40 ------- 1 3.0 0.0 22 53
r 2.207184 2 1 ack 40 ------- 1 3.0 0.0 23 54
+ 2.207184 1 0 ack 40 ------- 1 3.0 0.0 23 54
- 2.207184 1 0 ack 40 ------- 1 3.0 0.0 23 54
r 2.208016 2 1 ack 40 ------- 1 3.0 0.0 24 55
+ 2.208016 1 0 ack 40 ------- 1 3.0 0.0 24 55
- 2.208016 1 0 ack 40 ------- 1 3.0 0.0 24 55
r 2.208848 2 1 ack 40 ------- 1 3.0 0.0 25 56
+ 2.208848 1 0 ack 40 ------- 1 3.0 0.0 25 56
- 2.208848 1 0 ack 40 ------- 1 3.0 0.0 25 56
r 2.20968 2 1 ack 40 ------- 1 3.0 0.0 26 57
+ 2.20968 1 0 ack 40 ------- 1 3.0 0.0 26 57
- 2.20968 1 0 ack 40 ------- 1 3.0 0.0 26 57
r 2.210512 2 1 ack 40 ------- 1 3.0 0.0 27 58
+ 2.210512 1 0 ack 40 ------- 1 3.0 0.0 27 58
- 2.210512 1 0 ack 40 ------- 1 3.0 0.0 27 58
r 2.21056 1 0 ack 40 ------- 1 3.0 0.0 15 46
+ 2.21056 0 1 tcp 1040 ------- 1 0.0 3.0 31 62
- 2.21056 0 1 tcp 1040 ------- 1 0.0 3.0 31 62
+ 2.21056 0 1 tcp 1040 ------- 1 0.0 3.0 32 63
r 2.211344 2 1 ack 40 ------- 1 3.0 0.0 28 59
+ 2.211344 1 0 ack 40 ------- 1 3.0 0.0 28 59
- 2.211344 1 0 ack 40 ------- 1 3.0 0.0 28 59
r 2.211392 1 0 ack 40 ------- 1 3.0 0.0 16 47
+ 2.211392 0 1 tcp 1040 ------- 1 0.0 3.0 33 64
+ 2.211392 0 1 tcp 1040 ------- 1 0.0 3.0 34 65
- 2.211392 0 1 tcp 1040 ------- 1 0.0 3.0 32 63
r 2.212176 2 1 ack 40 ------- 1 3.0 0.0 29 60
+ 2.212176 1 0 ack 40 ------- 1 3.0 0.0 29 60
- 2.212176 1 0 ack 40 ------- 1 3.0 0.0 29 60
r 2.212224 1 0 ack 40 ------- 1 3.0 0.0 17 48
+ 2.212224 0 1 tcp 1040 ------- 1 0.0 3.0 35 66
+ 2.212224 0 1 tcp 1040 ------- 1 0.0 3.0 36 67
- 2.212224 0 1 tcp 1040 ------- 1 0.0 3.0 33 64
r 2.213008 2 1 ack 40 ------- 1 3.0 0.0 30 61
+ 2.213008 1 0 ack 40 ------- 1 3.0 0.0 30 61
- 2.213008 1 0 ack 40 ------- 1 3.0 0.0 30 61
r 2.213056 1 0 ack 40 ------- 1 3.0 0.0 18 49
+ 2.213056 0 1 tcp 1040 ------- 1 0.0 3.0 37 68
+ 2.213056 0 1 tcp 1040 ------- 1 0.0 3.0 38 69
- 2.213056 0 1 tcp 1040 ------- 1 0.0 3.0 34 65
r 2.213888 1 0 ack 40 ------- 1 3.0 0.0 19 50
+ 2.213888 0 1 tcp 1040 ------- 1 0.0 3.0 39 70
- 2.213888 0 1 tcp 1040 ------- 1 0.0 3.0 35 66
r 2.21472 1 0 ack 40 ------- 1 3.0 0.0 20 51
+ 2.21472 0 1 tcp 1040 ------- 1 0.0 3.0 40 71
- 2.21472 0 1 tcp 1040 ------- 1 0.0 3.0 36 67
r 2.215552 1 0 ack 40 ------- 1 3.0 0.0 21 52
+ 2.215552 0 1 tcp 1040 ------- 1 0.0 3.0 41 72
- 2.215552 0 1 tcp 1040 ------- 1 0.0 3.0 37 68
r 2.216384 1 0 ack 40 ------- 1 3.0 0.0 22 53
+ 2.216384 0 1 tcp 1040 ------- 1 0.0 3.0 42 73
- 2.216384 0 1 tcp 1040 ------- 1 0.0 3.0 38 69
r 2.217216 1 0 ack 40 ------- 1 3.0 0.0 23 54
+ 2.217216 0 1 tcp 1040 ------- 1 0.0 3.0 43 74
- 2.217216 0 1 tcp 1040 ------- 1 0.0 3.0 39 70
r 2.218048 1 0 ack 40 ------- 1 3.0 0.0 24 55
+ 2.218048 0 1 tcp 1040 ------- 1 0.0 3.0 44 75
- 2.218048 0 1 tcp 1040 ------- 1 0.0 3.0 40 71
r 2.21888 1 0 ack 40 ------- 1 3.0 0.0 25 56
+ 2.21888 0 1 tcp 1040 ------- 1 0.0 3.0 45 76
- 2.21888 0 1 tcp 1040 ------- 1 0.0 3.0 41 72
r 2.219712 1 0 ack 40 ------- 1 3.0 0.0 26 57
+ 2.219712 0 1 tcp 1040 ------- 1 0.0 3.0 46 77
- 2.219712 0 1 tcp 1040 ------- 1 0.0 3.0 42 73
r 2.220544 1 0 ack 40 ------- 1 3.0 0.0 27 58
+ 2.220544 0 1 tcp 1040 ------- 1 0.0 3.0 47 78
- 2.220544 0 1 tcp 1040 ------- 1 0.0 3.0 43 74
r 2.221376 1 0 ack 40 ------- 1 3.0 0.0 28 59
+ 2.221376 0 1 tcp 1040 ------- 1 0.0 3.0 48 79
- 2.221376 0 1 tcp 1040 ------- 1 0.0 3.0 44 75
r 2.221392 0 1 tcp 1040 ------- 1 0.0 3.0 31 62
+ 2.221392 1 2 tcp 1040 ------- 1 0.0 3.0 31 62
- 2.221392 1 2 tcp 1040 ------- 1 0.0 3.0 31 62
r 2.222208 1 0 ack 40 ------- 1 3.0 0.0 29 60
+ 2.222208 0 1 tcp 1040 ------- 1 0.0 3.0 49 80
- 2.222208 0 1 tcp 1040 ------- 1 0.0 3.0 45 76
r 2.222224 0 1 tcp 1040 ------- 1 0.0 3.0 32 63
+ 2.222224 1 2 tcp 1040 ------- 1 0.0 3.0 32 63
- 2.222224 1 2 tcp 1040 ------- 1 0.0 3.0 32 63
r 2.22304 1 0 ack 40 ------- 1 3.0 0.0 30 61
+ 2.22304 0 1 tcp 1040 ------- 1 0.0 3.0 50 81
- 2.22304 0 1 tcp 1040 ------- 1 0.0 3.0 46 77
r 2.223056 0 1 tcp 1040 ------- 1 0.0 3.0 33 64
+ 2.223056 1 2 tcp 1040 ------- 1 0.0 3.0 33 64
- 2.223056 1 2 tcp 1040 ------- 1 0.0 3.0 33 64
- 2.223872 0 1 tcp 1040 ------- 1 0.0 3.0 47 78
r 2.223888 0 1 tcp 1040 ------- 1 0.0 3.0 34 65
+ 2.223888 1 2 tcp 1040 ------- 1 0.0 3.0 34 65
- 2.223888 1 2 tcp 1040 ------- 1 0.0 3.0 34 65
- 2.224704 0 1 tcp 1040 ------- 1 0.0 3.0 48 79
r 2.22472 0 1 tcp 1040 ------- 1 0.0 3.0 35 66
+ 2.22472 1 2 tcp 1040 ------- 1 0.0 3.0 35 66
- 2.22472 1 2 tcp 1040 ------- 1 0.0 3.0 35 66
- 2.225536 0 1 tcp 1040 ------- 1 0.0 3.0 49 80
r 2.225552 0 1 tcp 1040 ------- 1 0.0 3.0 36 67
+ 2.225552 1 2 tcp 1040 ------- 1 0.0 3.0 36 67
- 2.225552 1 2 tcp 1040 ------- 1 0.0 3.0 36 67
- 2.226368 0 1 tcp 1040 ------- 1 0.0 3.0 50 81
r 2.226384 0 1 tcp 1040 ------- 1 0.0 3.0 37 68
+ 2.226384 1 2 tcp 1040 ------- 1 0.0 3.0 37 68
- 2.226384 1 2 tcp 1040 ------- 1 0.0 3.0 37 68
r 2.227216 0 1 tcp 1040 ------- 1 0.0 3.0 38 69
+ 2.227216 1 2 tcp 1040 ------- 1 0.0 3.0 38 69
- 2.227216 1 2 tcp 1040 ------- 1 0.0 3.0 38 69
r 2.228048 0 1 tcp 1040 ------- 1 0.0 3.0 39 70
+ 2.228048 1 2 tcp 1040 ------- 1 0.0 3.0 39 70
- 2.228048 1 2 tcp 1040 ------- 1 0.0 3.0 39 70
r 2.22888 0 1 tcp 1040 ------- 1 0.0 3.0 40 71
+ 2.22888 1 2 tcp 1040 ------- 1 0.0 3.0 40 71
- 2.22888 1 2 tcp 1040 ------- 1 0.0 3.0 40 71
r 2.229712 0 1 tcp 1040 ------- 1 0.0 3.0 41 72
+ 2.229712 1 2 tcp 1040 ------- 1 0.0 3.0 41 72
- 2.229712 1 2 tcp 1040 ------- 1 0.0 3.0 41 72
r 2.230544 0 1 tcp 1040 ------- 1 0.0 3.0 42 73
+ 2.230544 1 2 tcp 1040 ------- 1 0.0 3.0 42 73
- 2.230544 1 2 tcp 1040 ------- 1 0.0 3.0 42 73
r 2.231376 0 1 tcp 1040 ------- 1 0.0 3.0 43 74
+ 2.231376 1 2 tcp 1040 ------- 1 0.0 3.0 43 74
- 2.231376 1 2 tcp 1040 ------- 1 0.0 3.0 43 74
r 2.232208 0 1 tcp 1040 ------- 1 0.0 3.0 44 75
+ 2.232208 1 2 tcp 1040 ------- 1 0.0 3.0 44 75
- 2.232208 1 2 tcp 1040 ------- 1 0.0 3.0 44 75
r 2.23304 0 1 tcp 1040 ------- 1 0.0 3.0 45 76
+ 2.23304 1 2 tcp 1040 ------- 1 0.0 3.0 45 76
- 2.23304 1 2 tcp 1040 ------- 1 0.0 3.0 45 76
r 2.233872 0 1 tcp 1040 ------- 1 0.0 3.0 46 77
+ 2.233872 1 2 tcp 1040 ------- 1 0.0 3.0 46 77
- 2.233872 1 2 tcp 1040 ------- 1 0.0 3.0 46 77