+ 1 0 1 tcp 40 ------- 1 0.0 3.0 0 0
- 1 0 1 tcp 40 ------- 1 0.0 3.0 0 0
r 1.010032 0 1 tcp 40 ------- 1 0.0 3.0 0 0
+ 1.010032 1 2 tcp 40 ------- 1 0.0 3.0 0 0
- 1.010032 1 2 tcp 40 ------- 1 0.0 3.0 0 0
r 3.010064 1 2 tcp 40 ------- 1 0.0 3.0 0 0
+ 3.010064 2 3 tcp 40 ------- 1 0.0 3.0 0 0
- 3.010064 2 3 tcp 40 ------- 1 0.0 3.0 0 0
r 3.020096 2 3 tcp 40 ------- 1 0.0 3.0 0 0
+ 3.020096 3 2 ack 40 ------- 1 3.0 0.0 0 1
- 3.020096 3 2 ack 40 ------- 1 3.0 0.0 0 1
r 3.030128 3 2 ack 40 ------- 1 3.0 0.0 0 1
+ 3.030128 2 1 ack 40 ------- 1 3.0 0.0 0 1
- 3.030128 2 1 ack 40 ------- 1 3.0 0.0 0 1
+ 4 0 1 tcp 40 ---A--- 1 0.0 3.0 0 2
- 4 0 1 tcp 40 ---A--- 1 0.0 3.0 0 2
r 4.010032 0 1 tcp 40 ---A--- 1 0.0 3.0 0 2
+ 4.010032 1 2 tcp 40 ---A--- 1 0.0 3.0 0 2
- 4.010032 1 2 tcp 40 ---A--- 1 0.0 3.0 0 2
r 5.03016 2 1 ack 40 ------- 1 3.0 0.0 0 1
+ 5.03016 1 0 ack 40 ------- 1 3.0 0.0 0 1
- 5.03016 1 0 ack 40 ------- 1 3.0 0.0 0 1
r 5.040192 1 0 ack 40 ------- 1 3.0 0.0 0 1
+ 5.040192 0 1 tcp 1040 ------- 1 0.0 3.0 1 3
- 5.040192 0 1 tcp 1040 ------- 1 0.0 3.0 1 3
r 5.051024 0 1 tcp 1040 ------- 1 0.0 3.0 1 3
+ 5.051024 1 2 tcp 1040 ------- 1 0.0 3.0 1 3
- 5.051024 1 2 tcp 1040 ------- 1 0.0 3.0 1 3
r 6.010064 1 2 tcp 40 ---A--- 1 0.0 3.0 0 2
+ 6.010064 2 3 tcp 40 ---A--- 1 0.0 3.0 0 2
- 6.010064 2 3 tcp 40 ---A--- 1 0.0 3.0 0 2
r 6.020096 2 3 tcp 40 ---A--- 1 0.0 3.0 0 2
+ 6.020096 3 2 ack 40 ------- 1 3.0 0.0 0 4
- 6.020096 3 2 ack 40 ------- 1 3.0 0.0 0 4
r 6.030128 3 2 ack 40 ------- 1 3.0 0.0 0 4
+ 6.030128 2 1 ack 40 ------- 1 3.0 0.0 0 4
- 6.030128 2 1 ack 40 ------- 1 3.0 0.0 0 4
r 7.051856 1 2 tcp 1040 ------- 1 0.0 3.0 1 3
+ 7.051856 2 3 tcp 1040 ------- 1 0.0 3.0 1 3
- 7.051856 2 3 tcp 1040 ------- 1 0.0 3.0 1 3
r 7.062688 2 3 tcp 1040 ------- 1 0.0 3.0 1 3
+ 7.062688 3 2 ack 40 ------- 1 3.0 0.0 1 5
- 7.062688 3 2 ack 40 ------- 1 3.0 0.0 1 5
r 7.07272 3 2 ack 40 ------- 1 3.0 0.0 1 5
+ 7.07272 2 1 ack 40 ------- 1 3.0 0.0 1 5
- 7.07272 2 1 ack 40 ------- 1 3.0 0.0 1 5
r 8.03016 2 1 ack 40 ------- 1 3.0 0.0 0 4
+ 8.03016 1 0 ack 40 ------- 1 3.0 0.0 0 4
- 8.03016 1 0 ack 40 ------- 1 3.0 0.0 0 4
r 8.040192 1 0 ack 40 ------- 1 3.0 0.0 0 4
+ 8.040192 0 1 tcp 1040 ------- 1 0.0 3.0 2 6
- 8.040192 0 1 tcp 1040 ------- 1 0.0 3.0 2 6
r 8.051024 0 1 tcp 1040 ------- 1 0.0 3.0 2 6
+ 8.051024 1 2 tcp 1040 ------- 1 0.0 3.0 2 6
- 8.051024 1 2 tcp 1040 ------- 1 0.0 3.0 2 6
r 9.072752 2 1 ack 40 ------- 1 3.0 0.0 1 5
+ 9.072752 1 0 ack 40 ------- 1 3.0 0.0 1 5
- 9.072752 1 0 ack 40 ------- 1 3.0 0.0 1 5
r 9.082784 1 0 ack 40 ------- 1 3.0 0.0 1 5
+ 9.082784 0 1 tcp 1040 ------- 1 0.0 3.0 3 7
- 9.082784 0 1 tcp 1040 ------- 1 0.0 3.0 3 7
r 9.093616 0 1 tcp 1040 ------- 1 0.0 3.0 3 7
+ 9.093616 1 2 tcp 1040 ------- 1 0.0 3.0 3 7
- 9.093616 1 2 tcp 1040 ------- 1 0.0 3.0 3 7
r 10.051856 1 2 tcp 1040 ------- 1 0.0 3.0 2 6
+ 10.051856 2 3 tcp 1040 ------- 1 0.0 3.0 2 6
- 10.051856 2 3 tcp 1040 ------- 1 0.0 3.0 2 6
r 10.062688 2 3 tcp 1040 ------- 1 0.0 3.0 2 6
+ 10.062688 3 2 ack 40 ------- 1 3.0 0.0 2 8
- 10.062688 3 2 ack 40 ------- 1 3.0 0.0 2 8
r 10.07272 3 2 ack 40 ------- 1 3.0 0.0 2 8
+ 10.07272 2 1 ack 40 ------- 1 3.0 0.0 2 8
- 10.07272 2 1 ack 40 ------- 1 3.0 0.0 2 8
r 11.094448 1 2 tcp 1040 ------- 1 0.0 3.0 3 7
+ 11.094448 2 3 tcp 1040 ------- 1 0.0 3.0 3 7
- 11.094448 2 3 tcp 1040 ------- 1 0.0 3.0 3 7
r 11.10528 2 3 tcp 1040 ------- 1 0.0 3.0 3 7
+ 11.10528 3 2 ack 40 ------- 1 3.0 0.0 3 9
- 11.10528 3 2 ack 40 ------- 1 3.0 0.0 3 9
r 11.115312 3 2 ack 40 ------- 1 3.0 0.0 3 9
+ 11.115312 2 1 ack 40 ------- 1 3.0 0.0 3 9
- 11.115312 2 1 ack 40 ------- 1 3.0 0.0 3 9
r 12.072752 2 1 ack 40 ------- 1 3.0 0.0 2 8
+ 12.072752 1 0 ack 40 ------- 1 3.0 0.0 2 8
- 12.072752 1 0 ack 40 ------- 1 3.0 0.0 2 8
r 12.082784 1 0 ack 40 ------- 1 3.0 0.0 2 8
+ 12.082784 0 1 tcp 1040 ------- 1 0.0 3.0 4 10
- 12.082784 0 1 tcp 1040 ------- 1 0.0 3.0 4 10
r 12.093616 0 1 tcp 1040 ------- 1 0.0 3.0 4 10
+ 12.093616 1 2 tcp 1040 ------- 1 0.0 3.0 4 10
- 12.093616 1 2 tcp 1040 ------- 1 0.0 3.0 4 10
r 13.115344 2 1 ack 40 ------- 1 3.0 0.0 3 9
+ 13.115344 1 0 ack 40 ------- 1 3.0 0.0 3 9
- 13.115344 1 0 ack 40 ------- 1 3.0 0.0 3 9
r 13.125376 1 0 ack 40 ------- 1 3.0 0.0 3 9
+ 13.125376 0 1 tcp 1040 ------- 1 0.0 3.0 5 11
- 13.125376 0 1 tcp 1040 ------- 1 0.0 3.0 5 11
r 13.136208 0 1 tcp 1040 ------- 1 0.0 3.0 5 11
+ 13.136208 1 2 tcp 1040 ------- 1 0.0 3.0 5 11
- 13.136208 1 2 tcp 1040 ------- 1 0.0 3.0 5 11
r 14.094448 1 2 tcp 1040 ------- 1 0.0 3.0 4 10
+ 14.094448 2 3 tcp 1040 ------- 1 0.0 3.0 4 10
- 14.094448 2 3 tcp 1040 ------- 1 0.0 3.0 4 10
r 14.10528 2 3 tcp 1040 ------- 1 0.0 3.0 4 10
+ 14.10528 3 2 ack 40 ------- 1 3.0 0.0 4 12
- 14.10528 3 2 ack 40 ------- 1 3.0 0.0 4 12
r 14.115312 3 2 ack 40 ------- 1 3.0 0.0 4 12
+ 14.115312 2 1 ack 40 ------- 1 3.0 0.0 4 12
- 14.115312 2 1 ack 40 ------- 1 3.0 0.0 4 12
r 15.13704 1 2 tcp 1040 ------- 1 0.0 3.0 5 11
+ 15.13704 2 3 tcp 1040 ------- 1 0.0 3.0 5 11
- 15.13704 2 3 tcp 1040 ------- 1 0.0 3.0 5 11
r 15.147872 2 3 tcp 1040 ------- 1 0.0 3.0 5 11
+ 15.147872 3 2 ack 40 ------- 1 3.0 0.0 5 13
- 15.147872 3 2 ack 40 ------- 1 3.0 0.0 5 13
r 15.157904 3 2 ack 40 ------- 1 3.0 0.0 5 13
+ 15.157904 2 1 ack 40 ------- 1 3.0 0.0 5 13
- 15.157904 2 1 ack 40 ------- 1 3.0 0.0 5 13
r 16.115344 2 1 ack 40 ------- 1 3.0 0.0 4 12
+ 16.115344 1 0 ack 40 ------- 1 3.0 0.0 4 12
- 16.115344 1 0 ack 40 ------- 1 3.0 0.0 4 12
r 16.125376 1 0 ack 40 ------- 1 3.0 0.0 4 12
r 17.157936 2 1 ack 40 ------- 1 3.0 0.0 5 13
+ 17.157936 1 0 ack 40 ------- 1 3.0 0.0 5 13
- 17.157936 1 0 ack 40 ------- 1 3.0 0.0 5 13
r 17.167968 1 0 ack 40 ------- 1 3.0 0.0 5 13
