+ 1 0 2 cbr 210 ------- 1 0.0 4.0 0 0
- 1 0 2 cbr 210 ------- 1 0.0 4.0 0 0
+ 1.00375 0 2 cbr 210 ------- 1 0.0 4.0 1 1
- 1.00375 0 2 cbr 210 ------- 1 0.0 4.0 1 1
+ 1.0075 0 2 cbr 210 ------- 1 0.0 4.0 2 2
- 1.0075 0 2 cbr 210 ------- 1 0.0 4.0 2 2
+ 1.01125 0 2 cbr 210 ------- 1 0.0 4.0 3 3
- 1.01125 0 2 cbr 210 ------- 1 0.0 4.0 3 3
r 1.01168 0 2 cbr 210 ------- 1 0.0 4.0 0 0
+ 1.01168 2 3 cbr 210 ------- 1 0.0 4.0 0 0
- 1.01168 2 3 cbr 210 ------- 1 0.0 4.0 0 0
+ 1.015 0 2 cbr 210 ------- 1 0.0 4.0 4 4
- 1.015 0 2 cbr 210 ------- 1 0.0 4.0 4 4
r 1.01543 0 2 cbr 210 ------- 1 0.0 4.0 1 1
+ 1.01543 2 3 cbr 210 ------- 1 0.0 4.0 1 1
- 1.01543 2 3 cbr 210 ------- 1 0.0 4.0 1 1
+ 1.01875 0 2 cbr 210 ------- 1 0.0 4.0 5 5
- 1.01875 0 2 cbr 210 ------- 1 0.0 4.0 5 5
r 1.01918 0 2 cbr 210 ------- 1 0.0 4.0 2 2
+ 1.01918 2 3 cbr 210 ------- 1 0.0 4.0 2 2
- 1.01918 2 3 cbr 210 ------- 1 0.0 4.0 2 2
+ 1.0225 0 2 cbr 210 ------- 1 0.0 4.0 6 6
- 1.0225 0 2 cbr 210 ------- 1 0.0 4.0 6 6
r 1.02293 0 2 cbr 210 ------- 1 0.0 4.0 3 3
+ 1.02293 2 3 cbr 210 ------- 1 0.0 4.0 3 3
- 1.02293 2 3 cbr 210 ------- 1 0.0 4.0 3 3
r 1.02336 2 3 cbr 210 ------- 1 0.0 4.0 0 0
+ 1.02336 3 4 cbr 210 ------- 1 0.0 4.0 0 0
- 1.02336 3 4 cbr 210 ------- 1 0.0 4.0 0 0
+ 1.02625 0 2 cbr 210 ------- 1 0.0 4.0 7 7
- 1.02625 0 2 cbr 210 ------- 1 0.0 4.0 7 7
r 1.02668 0 2 cbr 210 ------- 1 0.0 4.0 4 4
+ 1.02668 2 3 cbr 210 ------- 1 0.0 4.0 4 4
- 1.02668 2 3 cbr 210 ------- 1 0.0 4.0 4 4
r 1.02711 2 3 cbr 210 ------- 1 0.0 4.0 1 1
+ 1.02711 3 4 cbr 210 ------- 1 0.0 4.0 1 1
- 1.02711 3 4 cbr 210 ------- 1 0.0 4.0 1 1
+ 1.03 0 2 cbr 210 ------- 1 0.0 4.0 8 8
- 1.03 0 2 cbr 210 ------- 1 0.0 4.0 8 8
r 1.03043 0 2 cbr 210 ------- 1 0.0 4.0 5 5
+ 1.03043 2 3 cbr 210 ------- 1 0.0 4.0 5 5
- 1.03043 2 3 cbr 210 ------- 1 0.0 4.0 5 5
r 1.03086 2 3 cbr 210 ------- 1 0.0 4.0 2 2
+ 1.03086 3 4 cbr 210 ------- 1 0.0 4.0 2 2
- 1.03086 3 4 cbr 210 ------- 1 0.0 4.0 2 2
+ 1.03375 0 2 cbr 210 ------- 1 0.0 4.0 9 9
- 1.03375 0 2 cbr 210 ------- 1 0.0 4.0 9 9
r 1.03418 0 2 cbr 210 ------- 1 0.0 4.0 6 6
+ 1.03418 2 3 cbr 210 ------- 1 0.0 4.0 6 6
- 1.03418 2 3 cbr 210 ------- 1 0.0 4.0 6 6
r 1.03461 2 3 cbr 210 ------- 1 0.0 4.0 3 3
+ 1.03461 3 4 cbr 210 ------- 1 0.0 4.0 3 3
- 1.03461 3 4 cbr 210 ------- 1 0.0 4.0 3 3
r 1.03504 3 4 cbr 210 ------- 1 0.0 4.0 0 0
+ 1.0375 0 2 cbr 210 ------- 1 0.0 4.0 10 10
- 1.0375 0 2 cbr 210 ------- 1 0.0 4.0 10 10
r 1.03793 0 2 cbr 210 ------- 1 0.0 4.0 7 7
+ 1.03793 2 3 cbr 210 ------- 1 0.0 4.0 7 7
- 1.03793 2 3 cbr 210 ------- 1 0.0 4.0 7 7
r 1.03836 2 3 cbr 210 ------- 1 0.0 4.0 4 4
+ 1.03836 3 4 cbr 210 ------- 1 0.0 4.0 4 4
- 1.03836 3 4 cbr 210 ------- 1 0.0 4.0 4 4
r 1.03879 3 4 cbr 210 ------- 1 0.0 4.0 1 1
+ 1.04125 0 2 cbr 210 ------- 1 0.0 4.0 11 11
- 1.04125 0 2 cbr 210 ------- 1 0.0 4.0 11 11
r 1.04168 0 2 cbr 210 ------- 1 0.0 4.0 8 8
+ 1.04168 2 3 cbr 210 ------- 1 0.0 4.0 8 8
- 1.04168 2 3 cbr 210 ------- 1 0.0 4.0 8 8
r 1.04211 2 3 cbr 210 ------- 1 0.0 4.0 5 5
+ 1.04211 3 4 cbr 210 ------- 1 0.0 4.0 5 5
- 1.04211 3 4 cbr 210 ------- 1 0.0 4.0 5 5
r 1.04254 3 4 cbr 210 ------- 1 0.0 4.0 2 2
+ 1.045 0 2 cbr 210 ------- 1 0.0 4.0 12 12
- 1.045 0 2 cbr 210 ------- 1 0.0 4.0 12 12
r 1.04543 0 2 cbr 210 ------- 1 0.0 4.0 9 9
+ 1.04543 2 3 cbr 210 ------- 1 0.0 4.0 9 9
- 1.04543 2 3 cbr 210 ------- 1 0.0 4.0 9 9
r 1.04586 2 3 cbr 210 ------- 1 0.0 4.0 6 6
+ 1.04586 3 4 cbr 210 ------- 1 0.0 4.0 6 6
- 1.04586 3 4 cbr 210 ------- 1 0.0 4.0 6 6
r 1.04629 3 4 cbr 210 ------- 1 0.0 4.0 3 3
+ 1.04875 0 2 cbr 210 ------- 1 0.0 4.0 13 13
- 1.04875 0 2 cbr 210 ------- 1 0.0 4.0 13 13
r 1.04918 0 2 cbr 210 ------- 1 0.0 4.0 10 10
+ 1.04918 2 3 cbr 210 ------- 1 0.0 4.0 10 10
- 1.04918 2 3 cbr 210 ------- 1 0.0 4.0 10 10
r 1.04961 2 3 cbr 210 ------- 1 0.0 4.0 7 7
+ 1.04961 3 4 cbr 210 ------- 1 0.0 4.0 7 7
- 1.04961 3 4 cbr 210 ------- 1 0.0 4.0 7 7
r 1.05004 3 4 cbr 210 ------- 1 0.0 4.0 4 4
+ 1.0525 0 2 cbr 210 ------- 1 0.0 4.0 14 14
- 1.0525 0 2 cbr 210 ------- 1 0.0 4.0 14 14
r 1.05293 0 2 cbr 210 ------- 1 0.0 4.0 11 11
+ 1.05293 2 3 cbr 210 ------- 1 0.0 4.0 11 11
- 1.05293 2 3 cbr 210 ------- 1 0.0 4.0 11 11
r 1.05336 2 3 cbr 210 ------- 1 0.0 4.0 8 8
+ 1.05336 3 4 cbr 210 ------- 1 0.0 4.0 8 8
- 1.05336 3 4 cbr 210 ------- 1 0.0 4.0 8 8
r 1.05379 3 4 cbr 210 ------- 1 0.0 4.0 5 5
+ 1.05625 0 2 cbr 210 ------- 1 0.0 4.0 15 15
- 1.05625 0 2 cbr 210 ------- 1 0.0 4.0 15 15
r 1.05668 0 2 cbr 210 ------- 1 0.0 4.0 12 12
+ 1.05668 2 3 cbr 210 ------- 1 0.0 4.0 12 12
- 1.05668 2 3 cbr 210 ------- 1 0.0 4.0 12 12
r 1.05711 2 3 cbr 210 ------- 1 0.0 4.0 9 9
+ 1.05711 3 4 cbr 210 ------- 1 0.0 4.0 9 9
- 1.05711 3 4 cbr 210 ------- 1 0.0 4.0 9 9
r 1.05754 3 4 cbr 210 ------- 1 0.0 4.0 6 6
+ 1.06 0 2 cbr 210 ------- 1 0.0 4.0 16 16
- 1.06 0 2 cbr 210 ------- 1 0.0 4.0 16 16
r 1.06043 0 2 cbr 210 ------- 1 0.0 4.0 13 13
+ 1.06043 2 3 cbr 210 ------- 1 0.0 4.0 13 13
- 1.06043 2 3 cbr 210 ------- 1 0.0 4.0 13 13
r 1.06086 2 3 cbr 210 ------- 1 0.0 4.0 10 10
+ 1.06086 3 4 cbr 210 ------- 1 0.0 4.0 10 10
- 1.06086 3 4 cbr 210 ------- 1 0.0 4.0 10 10
r 1.06129 3 4 cbr 210 ------- 1 0.0 4.0 7 7
+ 1.06375 0 2 cbr 210 ------- 1 0.0 4.0 17 17
- 1.06375 0 2 cbr 210 ------- 1 0.0 4.0 17 17
r 1.06418 0 2 cbr 210 ------- 1 0.0 4.0 14 14
+ 1.06418 2 3 cbr 210 ------- 1 0.0 4.0 14 14
- 1.06418 2 3 cbr 210 ------- 1 0.0 4.0 14 14
r 1.06461 2 3 cbr 210 ------- 1 0.0 4.0 11 11
+ 1.06461 3 4 cbr 210 ------- 1 0.0 4.0 11 11
- 1.06461 3 4 cbr 210 ------- 1 0.0 4.0 11 11
r 1.06504 3 4 cbr 210 ------- 1 0.0 4.0 8 8
+ 1.0675 0 2 cbr 210 ------- 1 0.0 4.0 18 18
- 1.0675 0 2 cbr 210 ------- 1 0.0 4.0 18 18
r 1.06793 0 2 cbr 210 ------- 1 0.0 4.0 15 15
+ 1.06793 2 3 cbr 210 ------- 1 0.0 4.0 15 15
- 1.06793 2 3 cbr 210 ------- 1 0.0 4.0 15 15
r 1.06836 2 3 cbr 210 ------- 1 0.0 4.0 12 12
+ 1.06836 3 4 cbr 210 ------- 1 0.0 4.0 12 12
- 1.06836 3 4 cbr 210 ------- 1 0.0 4.0 12 12
r 1.06879 3 4 cbr 210 ------- 1 0.0 4.0 9 9
+ 1.07125 0 2 cbr 210 ------- 1 0.0 4.0 19 19
- 1.07125 0 2 cbr 210 ------- 1 0.0 4.0 19 19
r 1.07168 0 2 cbr 210 ------- 1 0.0 4.0 16 16
+ 1.07168 2 3 cbr 210 ------- 1 0.0 4.0 16 16
- 1.07168 2 3 cbr 210 ------- 1 0.0 4.0 16 16
r 1.07211 2 3 cbr 210 ------- 1 0.0 4.0 13 13
+ 1.07211 3 4 cbr 210 ------- 1 0.0 4.0 13 13
- 1.07211 3 4 cbr 210 ------- 1 0.0 4.0 13 13
r 1.07254 3 4 cbr 210 ------- 1 0.0 4.0 10 10
+ 1.075 0 2 cbr 210 ------- 1 0.0 4.0 20 20
- 1.075 0 2 cbr 210 ------- 1 0.0 4.0 20 20
r 1.07543 0 2 cbr 210 ------- 1 0.0 4.0 17 17
+ 1.07543 2 3 cbr 210 ------- 1 0.0 4.0 17 17
- 1.07543 2 3 cbr 210 ------- 1 0.0 4.0 17 17
r 1.07586 2 3 cbr 210 ------- 1 0.0 4.0 14 14
+ 1.07586 3 4 cbr 210 ------- 1 0.0 4.0 14 14
- 1.07586 3 4 cbr 210 ------- 1 0.0 4.0 14 14
r 1.07629 3 4 cbr 210 ------- 1 0.0 4.0 11 11
+ 1.07875 0 2 cbr 210 ------- 1 0.0 4.0 21 21
- 1.07875 0 2 cbr 210 ------- 1 0.0 4.0 21 21
r 1.07918 0 2 cbr 210 ------- 1 0.0 4.0 18 18
+ 1.07918 2 3 cbr 210 ------- 1 0.0 4.0 18 18
- 1.07918 2 3 cbr 210 ------- 1 0.0 4.0 18 18
r 1.07961 2 3 cbr 210 ------- 1 0.0 4.0 15 15
+ 1.07961 3 4 cbr 210 ------- 1 0.0 4.0 15 15
- 1.07961 3 4 cbr 210 ------- 1 0.0 4.0 15 15
r 1.08004 3 4 cbr 210 ------- 1 0.0 4.0 12 12
+ 1.0825 0 2 cbr 210 ------- 1 0.0 4.0 22 22
- 1.0825 0 2 cbr 210 ------- 1 0.0 4.0 22 22
r 1.08293 0 2 cbr 210 ------- 1 0.0 4.0 19 19
+ 1.08293 2 3 cbr 210 ------- 1 0.0 4.0 19 19
- 1.08293 2 3 cbr 210 ------- 1 0.0 4.0 19 19
r 1.08336 2 3 cbr 210 ------- 1 0.0 4.0 16 16
+ 1.08336 3 4 cbr 210 ------- 1 0.0 4.0 16 16
- 1.08336 3 4 cbr 210 ------- 1 0.0 4.0 16 16
r 1.08379 3 4 cbr 210 ------- 1 0.0 4.0 13 13
+ 1.08625 0 2 cbr 210 ------- 1 0.0 4.0 23 23
- 1.08625 0 2 cbr 210 ------- 1 0.0 4.0 23 23
r 1.08668 0 2 cbr 210 ------- 1 0.0 4.0 20 20
+ 1.08668 2 3 cbr 210 ------- 1 0.0 4.0 20 20
- 1.08668 2 3 cbr 210 ------- 1 0.0 4.0 20 20
r 1.08711 2 3 cbr 210 ------- 1 0.0 4.0 17 17
+ 1.08711 3 4 cbr 210 ------- 1 0.0 4.0 17 17
- 1.08711 3 4 cbr 210 ------- 1 0.0 4.0 17 17
r 1.08754 3 4 cbr 210 ------- 1 0.0 4.0 14 14
+ 1.09 0 2 cbr 210 ------- 1 0.0 4.0 24 24
- 1.09 0 2 cbr 210 ------- 1 0.0 4.0 24 24
r 1.09043 0 2 cbr 210 ------- 1 0.0 4.0 21 21
+ 1.09043 2 3 cbr 210 ------- 1 0.0 4.0 21 21
- 1.09043 2 3 cbr 210 ------- 1 0.0 4.0 21 21
r 1.09086 2 3 cbr 210 ------- 1 0.0 4.0 18 18
+ 1.09086 3 4 cbr 210 ------- 1 0.0 4.0 18 18
- 1.09086 3 4 cbr 210 ------- 1 0.0 4.0 18 18
r 1.09129 3 4 cbr 210 ------- 1 0.0 4.0 15 15
+ 1.09375 0 2 cbr 210 ------- 1 0.0 4.0 25 25
- 1.09375 0 2 cbr 210 ------- 1 0.0 4.0 25 25
r 1.09418 0 2 cbr 210 ------- 1 0.0 4.0 22 22
+ 1.09418 2 3 cbr 210 ------- 1 0.0 4.0 22 22
- 1.09418 2 3 cbr 210 ------- 1 0.0 4.0 22 22
r 1.09461 2 3 cbr 210 ------- 1 0.0 4.0 19 19
+ 1.09461 3 4 cbr 210 ------- 1 0.0 4.0 19 19
- 1.09461 3 4 cbr 210 ------- 1 0.0 4.0 19 19
r 1.09504 3 4 cbr 210 ------- 1 0.0 4.0 16 16
+ 1.0975 0 2 cbr 210 ------- 1 0.0 4.0 26 26
- 1.0975 0 2 cbr 210 ------- 1 0.0 4.0 26 26
r 1.09793 0 2 cbr 210 ------- 1 0.0 4.0 23 23
+ 1.09793 2 3 cbr 210 ------- 1 0.0 4.0 23 23
- 1.09793 2 3 cbr 210 ------- 1 0.0 4.0 23 23
r 1.09836 2 3 cbr 210 ------- 1 0.0 4.0 20 20
+ 1.09836 3 4 cbr 210 ------- 1 0.0 4.0 20 20
- 1.09836 3 4 cbr 210 ------- 1 0.0 4.0 20 20
r 1.09879 3 4 cbr 210 ------- 1 0.0 4.0 17 17
+ 1.10125 0 2 cbr 210 ------- 1 0.0 4.0 27 27
- 1.10125 0 2 cbr 210 ------- 1 0.0 4.0 27 27
r 1.10168 0 2 cbr 210 ------- 1 0.0 4.0 24 24
+ 1.10168 2 3 cbr 210 ------- 1 0.0 4.0 24 24
- 1.10168 2 3 cbr 210 ------- 1 0.0 4.0 24 24
r 1.10211 2 3 cbr 210 ------- 1 0.0 4.0 21 21
+ 1.10211 3 4 cbr 210 ------- 1 0.0 4.0 21 21
- 1.10211 3 4 cbr 210 ------- 1 0.0 4.0 21 21
r 1.10254 3 4 cbr 210 ------- 1 0.0 4.0 18 18
+ 1.105 0 2 cbr 210 ------- 1 0.0 4.0 28 28
- 1.105 0 2 cbr 210 ------- 1 0.0 4.0 28 28
r 1.10543 0 2 cbr 210 ------- 1 0.0 4.0 25 25
+ 1.10543 2 3 cbr 210 ------- 1 0.0 4.0 25 25
- 1.10543 2 3 cbr 210 ------- 1 0.0 4.0 25 25
r 1.10586 2 3 cbr 210 ------- 1 0.0 4.0 22 22
+ 1.10586 3 4 cbr 210 ------- 1 0.0 4.0 22 22
- 1.10586 3 4 cbr 210 ------- 1 0.0 4.0 22 22
r 1.10629 3 4 cbr 210 ------- 1 0.0 4.0 19 19
+ 1.10875 0 2 cbr 210 ------- 1 0.0 4.0 29 29
- 1.10875 0 2 cbr 210 ------- 1 0.0 4.0 29 29
r 1.10918 0 2 cbr 210 ------- 1 0.0 4.0 26 26
+ 1.10918 2 3 cbr 210 ------- 1 0.0 4.0 26 26
- 1.10918 2 3 cbr 210 ------- 1 0.0 4.0 26 26
r 1.10961 2 3 cbr 210 ------- 1 0.0 4.0 23 23
+ 1.10961 3 4 cbr 210 ------- 1 0.0 4.0 23 23
- 1.10961 3 4 cbr 210 ------- 1 0.0 4.0 23 23
r 1.11004 3 4 cbr 210 ------- 1 0.0 4.0 20 20
+ 1.1125 0 2 cbr 210 ------- 1 0.0 4.0 30 30
- 1.1125 0 2 cbr 210 ------- 1 0.0 4.0 30 30
r 1.11293 0 2 cbr 210 ------- 1 0.0 4.0 27 27
+ 1.11293 2 3 cbr 210 ------- 1 0.0 4.0 27 27
- 1.11293 2 3 cbr 210 ------- 1 0.0 4.0 27 27
r 1.11336 2 3 cbr 210 ------- 1 0.0 4.0 24 24
+ 1.11336 3 4 cbr 210 ------- 1 0.0 4.0 24 24
- 1.11336 3 4 cbr 210 ------- 1 0.0 4.0 24 24
r 1.11379 3 4 cbr 210 ------- 1 0.0 4.0 21 21
+ 1.11625 0 2 cbr 210 ------- 1 0.0 4.0 31 31
- 1.11625 0 2 cbr 210 ------- 1 0.0 4.0 31 31
r 1.11668 0 2 cbr 210 ------- 1 0.0 4.0 28 28
+ 1.11668 2 3 cbr 210 ------- 1 0.0 4.0 28 28
- 1.11668 2 3 cbr 210 ------- 1 0.0 4.0 28 28
r 1.11711 2 3 cbr 210 ------- 1 0.0 4.0 25 25
+ 1.11711 3 4 cbr 210 ------- 1 0.0 4.0 25 25
- 1.11711 3 4 cbr 210 ------- 1 0.0 4.0 25 25
r 1.11754 3 4 cbr 210 ------- 1 0.0 4.0 22 22
+ 1.12 0 2 cbr 210 ------- 1 0.0 4.0 32 32
- 1.12 0 2 cbr 210 ------- 1 0.0 4.0 32 32
r 1.12043 0 2 cbr 210 ------- 1 0.0 4.0 29 29
+ 1.12043 2 3 cbr 210 ------- 1 0.0 4.0 29 29
- 1.12043 2 3 cbr 210 ------- 1 0.0 4.0 29 29
r 1.12086 2 3 cbr 210 ------- 1 0.0 4.0 26 26
+ 1.12086 3 4 cbr 210 ------- 1 0.0 4.0 26 26
- 1.12086 3 4 cbr 210 ------- 1 0.0 4.0 26 26
r 1.12129 3 4 cbr 210 ------- 1 0.0 4.0 23 23
+ 1.12375 0 2 cbr 210 ------- 1 0.0 4.0 33 33
- 1.12375 0 2 cbr 210 ------- 1 0.0 4.0 33 33
r 1.12418 0 2 cbr 210 ------- 1 0.0 4.0 30 30
+ 1.12418 2 3 cbr 210 ------- 1 0.0 4.0 30 30
- 1.12418 2 3 cbr 210 ------- 1 0.0 4.0 30 30
r 1.12461 2 3 cbr 210 ------- 1 0.0 4.0 27 27
+ 1.12461 3 4 cbr 210 ------- 1 0.0 4.0 27 27
- 1.12461 3 4 cbr 210 ------- 1 0.0 4.0 27 27
r 1.12504 3 4 cbr 210 ------- 1 0.0 4.0 24 24
+ 1.1275 0 2 cbr 210 ------- 1 0.0 4.0 34 34
- 1.1275 0 2 cbr 210 ------- 1 0.0 4.0 34 34
r 1.12793 0 2 cbr 210 ------- 1 0.0 4.0 31 31
+ 1.12793 2 3 cbr 210 ------- 1 0.0 4.0 31 31
- 1.12793 2 3 cbr 210 ------- 1 0.0 4.0 31 31
r 1.12836 2 3 cbr 210 ------- 1 0.0 4.0 28 28
+ 1.12836 3 4 cbr 210 ------- 1 0.0 4.0 28 28
- 1.12836 3 4 cbr 210 ------- 1 0.0 4.0 28 28
r 1.12879 3 4 cbr 210 ------- 1 0.0 4.0 25 25
+ 1.13125 0 2 cbr 210 ------- 1 0.0 4.0 35 35
- 1.13125 0 2 cbr 210 ------- 1 0.0 4.0 35 35
r 1.13168 0 2 cbr 210 ------- 1 0.0 4.0 32 32
+ 1.13168 2 3 cbr 210 ------- 1 0.0 4.0 32 32
- 1.13168 2 3 cbr 210 ------- 1 0.0 4.0 32 32
r 1.13211 2 3 cbr 210 ------- 1 0.0 4.0 29 29
+ 1.13211 3 4 cbr 210 ------- 1 0.0 4.0 29 29
- 1.13211 3 4 cbr 210 ------- 1 0.0 4.0 29 29
r 1.13254 3 4 cbr 210 ------- 1 0.0 4.0 26 26
+ 1.135 0 2 cbr 210 ------- 1 0.0 4.0 36 36
- 1.135 0 2 cbr 210 ------- 1 0.0 4.0 36 36
r 1.13543 0 2 cbr 210 ------- 1 0.0 4.0 33 33
+ 1.13543 2 3 cbr 210 ------- 1 0.0 4.0 33 33
- 1.13543 2 3 cbr 210 ------- 1 0.0 4.0 33 33
r 1.13586 2 3 cbr 210 ------- 1 0.0 4.0 30 30
+ 1.13586 3 4 cbr 210 ------- 1 0.0 4.0 30 30
- 1.13586 3 4 cbr 210 ------- 1 0.0 4.0 30 30
r 1.13629 3 4 cbr 210 ------- 1 0.0 4.0 27 27
+ 1.13875 0 2 cbr 210 ------- 1 0.0 4.0 37 37
- 1.13875 0 2 cbr 210 ------- 1 0.0 4.0 37 37
r 1.13918 0 2 cbr 210 ------- 1 0.0 4.0 34 34
+ 1.13918 2 3 cbr 210 ------- 1 0.0 4.0 34 34
- 1.13918 2 3 cbr 210 ------- 1 0.0 4.0 34 34
r 1.13961 2 3 cbr 210 ------- 1 0.0 4.0 31 31
+ 1.13961 3 4 cbr 210 ------- 1 0.0 4.0 31 31
- 1.13961 3 4 cbr 210 ------- 1 0.0 4.0 31 31
r 1.14004 3 4 cbr 210 ------- 1 0.0 4.0 28 28
+ 1.1425 0 2 cbr 210 ------- 1 0.0 4.0 38 38
- 1.1425 0 2 cbr 210 ------- 1 0.0 4.0 38 38
r 1.14293 0 2 cbr 210 ------- 1 0.0 4.0 35 35
+ 1.14293 2 3 cbr 210 ------- 1 0.0 4.0 35 35
- 1.14293 2 3 cbr 210 ------- 1 0.0 4.0 35 35
r 1.14336 2 3 cbr 210 ------- 1 0.0 4.0 32 32
+ 1.14336 3 4 cbr 210 ------- 1 0.0 4.0 32 32
- 1.14336 3 4 cbr 210 ------- 1 0.0 4.0 32 32
r 1.14379 3 4 cbr 210 ------- 1 0.0 4.0 29 29
+ 1.14625 0 2 cbr 210 ------- 1 0.0 4.0 39 39
- 1.14625 0 2 cbr 210 ------- 1 0.0 4.0 39 39
r 1.14668 0 2 cbr 210 ------- 1 0.0 4.0 36 36
+ 1.14668 2 3 cbr 210 ------- 1 0.0 4.0 36 36
- 1.14668 2 3 cbr 210 ------- 1 0.0 4.0 36 36
r 1.14711 2 3 cbr 210 ------- 1 0.0 4.0 33 33
+ 1.14711 3 4 cbr 210 ------- 1 0.0 4.0 33 33
- 1.14711 3 4 cbr 210 ------- 1 0.0 4.0 33 33
r 1.14754 3 4 cbr 210 ------- 1 0.0 4.0 30 30
+ 1.15 0 2 cbr 210 ------- 1 0.0 4.0 40 40
- 1.15 0 2 cbr 210 ------- 1 0.0 4.0 40 40
r 1.15043 0 2 cbr 210 ------- 1 0.0 4.0 37 37
+ 1.15043 2 3 cbr 210 ------- 1 0.0 4.0 37 37
- 1.15043 2 3 cbr 210 ------- 1 0.0 4.0 37 37
r 1.15086 2 3 cbr 210 ------- 1 0.0 4.0 34 34
+ 1.15086 3 4 cbr 210 ------- 1 0.0 4.0 34 34
- 1.15086 3 4 cbr 210 ------- 1 0.0 4.0 34 34
r 1.15129 3 4 cbr 210 ------- 1 0.0 4.0 31 31
+ 1.15375 0 2 cbr 210 ------- 1 0.0 4.0 41 41
- 1.15375 0 2 cbr 210 ------- 1 0.0 4.0 41 41
r 1.15418 0 2 cbr 210 ------- 1 0.0 4.0 38 38
+ 1.15418 2 3 cbr 210 ------- 1 0.0 4.0 38 38
- 1.15418 2 3 cbr 210 ------- 1 0.0 4.0 38 38
r 1.15461 2 3 cbr 210 ------- 1 0.0 4.0 35 35
+ 1.15461 3 4 cbr 210 ------- 1 0.0 4.0 35 35
- 1.15461 3 4 cbr 210 ------- 1 0.0 4.0 35 35
r 1.15504 3 4 cbr 210 ------- 1 0.0 4.0 32 32
+ 1.1575 0 2 cbr 210 ------- 1 0.0 4.0 42 42
- 1.1575 0 2 cbr 210 ------- 1 0.0 4.0 42 42
r 1.15793 0 2 cbr 210 ------- 1 0.0 4.0 39 39
+ 1.15793 2 3 cbr 210 ------- 1 0.0 4.0 39 39
- 1.15793 2 3 cbr 210 ------- 1 0.0 4.0 39 39
r 1.15836 2 3 cbr 210 ------- 1 0.0 4.0 36 36
+ 1.15836 3 4 cbr 210 ------- 1 0.0 4.0 36 36
- 1.15836 3 4 cbr 210 ------- 1 0.0 4.0 36 36
r 1.15879 3 4 cbr 210 ------- 1 0.0 4.0 33 33
+ 1.16125 0 2 cbr 210 ------- 1 0.0 4.0 43 43
- 1.16125 0 2 cbr 210 ------- 1 0.0 4.0 43 43
r 1.16168 0 2 cbr 210 ------- 1 0.0 4.0 40 40
+ 1.16168 2 3 cbr 210 ------- 1 0.0 4.0 40 40
- 1.16168 2 3 cbr 210 ------- 1 0.0 4.0 40 40
r 1.16211 2 3 cbr 210 ------- 1 0.0 4.0 37 37
+ 1.16211 3 4 cbr 210 ------- 1 0.0 4.0 37 37
- 1.16211 3 4 cbr 210 ------- 1 0.0 4.0 37 37
r 1.16254 3 4 cbr 210 ------- 1 0.0 4.0 34 34
+ 1.165 0 2 cbr 210 ------- 1 0.0 4.0 44 44
- 1.165 0 2 cbr 210 ------- 1 0.0 4.0 44 44
r 1.16543 0 2 cbr 210 ------- 1 0.0 4.0 41 41
+ 1.16543 2 3 cbr 210 ------- 1 0.0 4.0 41 41
- 1.16543 2 3 cbr 210 ------- 1 0.0 4.0 41 41
r 1.16586 2 3 cbr 210 ------- 1 0.0 4.0 38 38
+ 1.16586 3 4 cbr 210 ------- 1 0.0 4.0 38 38
- 1.16586 3 4 cbr 210 ------- 1 0.0 4.0 38 38
r 1.16629 3 4 cbr 210 ------- 1 0.0 4.0 35 35
+ 1.16875 0 2 cbr 210 ------- 1 0.0 4.0 45 45
- 1.16875 0 2 cbr 210 ------- 1 0.0 4.0 45 45
r 1.16918 0 2 cbr 210 ------- 1 0.0 4.0 42 42
+ 1.16918 2 3 cbr 210 ------- 1 0.0 4.0 42 42
- 1.16918 2 3 cbr 210 ------- 1 0.0 4.0 42 42
r 1.16961 2 3 cbr 210 ------- 1 0.0 4.0 39 39
+ 1.16961 3 4 cbr 210 ------- 1 0.0 4.0 39 39
- 1.16961 3 4 cbr 210 ------- 1 0.0 4.0 39 39
r 1.17004 3 4 cbr 210 ------- 1 0.0 4.0 36 36
+ 1.1725 0 2 cbr 210 ------- 1 0.0 4.0 46 46
- 1.1725 0 2 cbr 210 ------- 1 0.0 4.0 46 46
r 1.17293 0 2 cbr 210 ------- 1 0.0 4.0 43 43
+ 1.17293 2 3 cbr 210 ------- 1 0.0 4.0 43 43
- 1.17293 2 3 cbr 210 ------- 1 0.0 4.0 43 43
r 1.17336 2 3 cbr 210 ------- 1 0.0 4.0 40 40
+ 1.17336 3 4 cbr 210 ------- 1 0.0 4.0 40 40
- 1.17336 3 4 cbr 210 ------- 1 0.0 4.0 40 40
r 1.17379 3 4 cbr 210 ------- 1 0.0 4.0 37 37
+ 1.17625 0 2 cbr 210 ------- 1 0.0 4.0 47 47
- 1.17625 0 2 cbr 210 ------- 1 0.0 4.0 47 47
r 1.17668 0 2 cbr 210 ------- 1 0.0 4.0 44 44
+ 1.17668 2 3 cbr 210 ------- 1 0.0 4.0 44 44
- 1.17668 2 3 cbr 210 ------- 1 0.0 4.0 44 44
r 1.17711 2 3 cbr 210 ------- 1 0.0 4.0 41 41
+ 1.17711 3 4 cbr 210 ------- 1 0.0 4.0 41 41
- 1.17711 3 4 cbr 210 ------- 1 0.0 4.0 41 41
r 1.17754 3 4 cbr 210 ------- 1 0.0 4.0 38 38
+ 1.18 0 2 cbr 210 ------- 1 0.0 4.0 48 48
- 1.18 0 2 cbr 210 ------- 1 0.0 4.0 48 48
r 1.18043 0 2 cbr 210 ------- 1 0.0 4.0 45 45
+ 1.18043 2 3 cbr 210 ------- 1 0.0 4.0 45 45
- 1.18043 2 3 cbr 210 ------- 1 0.0 4.0 45 45
r 1.18086 2 3 cbr 210 ------- 1 0.0 4.0 42 42
+ 1.18086 3 4 cbr 210 ------- 1 0.0 4.0 42 42
- 1.18086 3 4 cbr 210 ------- 1 0.0 4.0 42 42
r 1.18129 3 4 cbr 210 ------- 1 0.0 4.0 39 39
+ 1.18375 0 2 cbr 210 ------- 1 0.0 4.0 49 49
- 1.18375 0 2 cbr 210 ------- 1 0.0 4.0 49 49
r 1.18418 0 2 cbr 210 ------- 1 0.0 4.0 46 46
+ 1.18418 2 3 cbr 210 ------- 1 0.0 4.0 46 46
- 1.18418 2 3 cbr 210 ------- 1 0.0 4.0 46 46
r 1.18461 2 3 cbr 210 ------- 1 0.0 4.0 43 43
+ 1.18461 3 4 cbr 210 ------- 1 0.0 4.0 43 43
- 1.18461 3 4 cbr 210 ------- 1 0.0 4.0 43 43
r 1.18504 3 4 cbr 210 ------- 1 0.0 4.0 40 40
+ 1.1875 0 2 cbr 210 ------- 1 0.0 4.0 50 50
- 1.1875 0 2 cbr 210 ------- 1 0.0 4.0 50 50
r 1.18793 0 2 cbr 210 ------- 1 0.0 4.0 47 47
+ 1.18793 2 3 cbr 210 ------- 1 0.0 4.0 47 47
- 1.18793 2 3 cbr 210 ------- 1 0.0 4.0 47 47
r 1.18836 2 3 cbr 210 ------- 1 0.0 4.0 44 44
+ 1.18836 3 4 cbr 210 ------- 1 0.0 4.0 44 44
- 1.18836 3 4 cbr 210 ------- 1 0.0 4.0 44 44
r 1.18879 3 4 cbr 210 ------- 1 0.0 4.0 41 41
+ 1.19125 0 2 cbr 210 ------- 1 0.0 4.0 51 51
- 1.19125 0 2 cbr 210 ------- 1 0.0 4.0 51 51
r 1.19168 0 2 cbr 210 ------- 1 0.0 4.0 48 48
+ 1.19168 2 3 cbr 210 ------- 1 0.0 4.0 48 48
- 1.19168 2 3 cbr 210 ------- 1 0.0 4.0 48 48
r 1.19211 2 3 cbr 210 ------- 1 0.0 4.0 45 45
+ 1.19211 3 4 cbr 210 ------- 1 0.0 4.0 45 45
- 1.19211 3 4 cbr 210 ------- 1 0.0 4.0 45 45
r 1.19254 3 4 cbr 210 ------- 1 0.0 4.0 42 42
+ 1.195 0 2 cbr 210 ------- 1 0.0 4.0 52 52
- 1.195 0 2 cbr 210 ------- 1 0.0 4.0 52 52
r 1.19543 0 2 cbr 210 ------- 1 0.0 4.0 49 49
+ 1.19543 2 3 cbr 210 ------- 1 0.0 4.0 49 49
- 1.19543 2 3 cbr 210 ------- 1 0.0 4.0 49 49
r 1.19586 2 3 cbr 210 ------- 1 0.0 4.0 46 46
+ 1.19586 3 4 cbr 210 ------- 1 0.0 4.0 46 46
- 1.19586 3 4 cbr 210 ------- 1 0.0 4.0 46 46
r 1.19629 3 4 cbr 210 ------- 1 0.0 4.0 43 43
+ 1.19875 0 2 cbr 210 ------- 1 0.0 4.0 53 53
- 1.19875 0 2 cbr 210 ------- 1 0.0 4.0 53 53
r 1.19918 0 2 cbr 210 ------- 1 0.0 4.0 50 50
+ 1.19918 2 3 cbr 210 ------- 1 0.0 4.0 50 50
- 1.19918 2 3 cbr 210 ------- 1 0.0 4.0 50 50
r 1.19961 2 3 cbr 210 ------- 1 0.0 4.0 47 47
+ 1.19961 3 4 cbr 210 ------- 1 0.0 4.0 47 47
- 1.19961 3 4 cbr 210 ------- 1 0.0 4.0 47 47
r 1.20004 3 4 cbr 210 ------- 1 0.0 4.0 44 44
+ 1.2025 0 2 cbr 210 ------- 1 0.0 4.0 54 54
- 1.2025 0 2 cbr 210 ------- 1 0.0 4.0 54 54
r 1.20293 0 2 cbr 210 ------- 1 0.0 4.0 51 51
+ 1.20293 2 3 cbr 210 ------- 1 0.0 4.0 51 51
- 1.20293 2 3 cbr 210 ------- 1 0.0 4.0 51 51
r 1.20336 2 3 cbr 210 ------- 1 0.0 4.0 48 48
+ 1.20336 3 4 cbr 210 ------- 1 0.0 4.0 48 48
- 1.20336 3 4 cbr 210 ------- 1 0.0 4.0 48 48
r 1.20379 3 4 cbr 210 ------- 1 0.0 4.0 45 45
+ 1.20625 0 2 cbr 210 ------- 1 0.0 4.0 55 55
- 1.20625 0 2 cbr 210 ------- 1 0.0 4.0 55 55
r 1.20668 0 2 cbr 210 ------- 1 0.0 4.0 52 52
+ 1.20668 2 3 cbr 210 ------- 1 0.0 4.0 52 52
- 1.20668 2 3 cbr 210 ------- 1 0.0 4.0 52 52
r 1.20711 2 3 cbr 210 ------- 1 0.0 4.0 49 49
+ 1.20711 3 4 cbr 210 ------- 1 0.0 4.0 49 49
- 1.20711 3 4 cbr 210 ------- 1 0.0 4.0 49 49
r 1.20754 3 4 cbr 210 ------- 1 0.0 4.0 46 46
+ 1.21 0 2 cbr 210 ------- 1 0.0 4.0 56 56
- 1.21 0 2 cbr 210 ------- 1 0.0 4.0 56 56
r 1.21043 0 2 cbr 210 ------- 1 0.0 4.0 53 53
+ 1.21043 2 3 cbr 210 ------- 1 0.0 4.0 53 53
- 1.21043 2 3 cbr 210 ------- 1 0.0 4.0 53 53
r 1.21086 2 3 cbr 210 ------- 1 0.0 4.0 50 50
+ 1.21086 3 4 cbr 210 ------- 1 0.0 4.0 50 50
- 1.21086 3 4 cbr 210 ------- 1 0.0 4.0 50 50
r 1.21129 3 4 cbr 210 ------- 1 0.0 4.0 47 47
+ 1.21375 0 2 cbr 210 ------- 1 0.0 4.0 57 57
- 1.21375 0 2 cbr 210 ------- 1 0.0 4.0 57 57
r 1.21418 0 2 cbr 210 ------- 1 0.0 4.0 54 54
+ 1.21418 2 3 cbr 210 ------- 1 0.0 4.0 54 54
- 1.21418 2 3 cbr 210 ------- 1 0.0 4.0 54 54
r 1.21461 2 3 cbr 210 ------- 1 0.0 4.0 51 51
+ 1.21461 3 4 cbr 210 ------- 1 0.0 4.0 51 51
- 1.21461 3 4 cbr 210 ------- 1 0.0 4.0 51 51
r 1.21504 3 4 cbr 210 ------- 1 0.0 4.0 48 48
+ 1.2175 0 2 cbr 210 ------- 1 0.0 4.0 58 58
- 1.2175 0 2 cbr 210 ------- 1 0.0 4.0 58 58
r 1.21793 0 2 cbr 210 ------- 1 0.0 4.0 55 55
+ 1.21793 2 3 cbr 210 ------- 1 0.0 4.0 55 55
- 1.21793 2 3 cbr 210 ------- 1 0.0 4.0 55 55
r 1.21836 2 3 cbr 210 ------- 1 0.0 4.0 52 52
+ 1.21836 3 4 cbr 210 ------- 1 0.0 4.0 52 52
- 1.21836 3 4 cbr 210 ------- 1 0.0 4.0 52 52
r 1.21879 3 4 cbr 210 ------- 1 0.0 4.0 49 49
+ 1.22125 0 2 cbr 210 ------- 1 0.0 4.0 59 59
- 1.22125 0 2 cbr 210 ------- 1 0.0 4.0 59 59
r 1.22168 0 2 cbr 210 ------- 1 0.0 4.0 56 56
+ 1.22168 2 3 cbr 210 ------- 1 0.0 4.0 56 56
- 1.22168 2 3 cbr 210 ------- 1 0.0 4.0 56 56
r 1.22211 2 3 cbr 210 ------- 1 0.0 4.0 53 53
+ 1.22211 3 4 cbr 210 ------- 1 0.0 4.0 53 53
- 1.22211 3 4 cbr 210 ------- 1 0.0 4.0 53 53
r 1.22254 3 4 cbr 210 ------- 1 0.0 4.0 50 50
+ 1.225 0 2 cbr 210 ------- 1 0.0 4.0 60 60
- 1.225 0 2 cbr 210 ------- 1 0.0 4.0 60 60
r 1.22543 0 2 cbr 210 ------- 1 0.0 4.0 57 57
+ 1.22543 2 3 cbr 210 ------- 1 0.0 4.0 57 57
- 1.22543 2 3 cbr 210 ------- 1 0.0 4.0 57 57
r 1.22586 2 3 cbr 210 ------- 1 0.0 4.0 54 54
+ 1.22586 3 4 cbr 210 ------- 1 0.0 4.0 54 54
- 1.22586 3 4 cbr 210 ------- 1 0.0 4.0 54 54
r 1.22629 3 4 cbr 210 ------- 1 0.0 4.0 51 51
+ 1.22875 0 2 cbr 210 ------- 1 0.0 4.0 61 61
- 1.22875 0 2 cbr 210 ------- 1 0.0 4.0 61 61
r 1.22918 0 2 cbr 210 ------- 1 0.0 4.0 58 58
+ 1.22918 2 3 cbr 210 ------- 1 0.0 4.0 58 58
- 1.22918 2 3 cbr 210 ------- 1 0.0 4.0 58 58
r 1.22961 2 3 cbr 210 ------- 1 0.0 4.0 55 55
+ 1.22961 3 4 cbr 210 ------- 1 0.0 4.0 55 55
- 1.22961 3 4 cbr 210 ------- 1 0.0 4.0 55 55
r 1.23004 3 4 cbr 210 ------- 1 0.0 4.0 52 52
+ 1.2325 0 2 cbr 210 ------- 1 0.0 4.0 62 62
- 1.2325 0 2 cbr 210 ------- 1 0.0 4.0 62 62
r 1.23293 0 2 cbr 210 ------- 1 0.0 4.0 59 59
+ 1.23293 2 3 cbr 210 ------- 1 0.0 4.0 59 59
- 1.23293 2 3 cbr 210 ------- 1 0.0 4.0 59 59
r 1.23336 2 3 cbr 210 ------- 1 0.0 4.0 56 56
+ 1.23336 3 4 cbr 210 ------- 1 0.0 4.0 56 56
- 1.23336 3 4 cbr 210 ------- 1 0.0 4.0 56 56
r 1.23379 3 4 cbr 210 ------- 1 0.0 4.0 53 53
+ 1.23625 0 2 cbr 210 ------- 1 0.0 4.0 63 63
- 1.23625 0 2 cbr 210 ------- 1 0.0 4.0 63 63
r 1.23668 0 2 cbr 210 ------- 1 0.0 4.0 60 60
+ 1.23668 2 3 cbr 210 ------- 1 0.0 4.0 60 60
- 1.23668 2 3 cbr 210 ------- 1 0.0 4.0 60 60
r 1.23711 2 3 cbr 210 ------- 1 0.0 4.0 57 57
+ 1.23711 3 4 cbr 210 ------- 1 0.0 4.0 57 57
- 1.23711 3 4 cbr 210 ------- 1 0.0 4.0 57 57
r 1.23754 3 4 cbr 210 ------- 1 0.0 4.0 54 54
+ 1.24 0 2 cbr 210 ------- 1 0.0 4.0 64 64
- 1.24 0 2 cbr 210 ------- 1 0.0 4.0 64 64
r 1.24043 0 2 cbr 210 ------- 1 0.0 4.0 61 61
+ 1.24043 2 3 cbr 210 ------- 1 0.0 4.0 61 61
- 1.24043 2 3 cbr 210 ------- 1 0.0 4.0 61 61
r 1.24086 2 3 cbr 210 ------- 1 0.0 4.0 58 58
+ 1.24086 3 4 cbr 210 ------- 1 0.0 4.0 58 58
- 1.24086 3 4 cbr 210 ------- 1 0.0 4.0 58 58
r 1.24129 3 4 cbr 210 ------- 1 0.0 4.0 55 55
+ 1.24375 0 2 cbr 210 ------- 1 0.0 4.0 65 65
- 1.24375 0 2 cbr 210 ------- 1 0.0 4.0 65 65
r 1.24418 0 2 cbr 210 ------- 1 0.0 4.0 62 62
+ 1.24418 2 3 cbr 210 ------- 1 0.0 4.0 62 62
- 1.24418 2 3 cbr 210 ------- 1 0.0 4.0 62 62
r 1.24461 2 3 cbr 210 ------- 1 0.0 4.0 59 59
+ 1.24461 3 4 cbr 210 ------- 1 0.0 4.0 59 59
- 1.24461 3 4 cbr 210 ------- 1 0.0 4.0 59 59
r 1.24504 3 4 cbr 210 ------- 1 0.0 4.0 56 56
+ 1.2475 0 2 cbr 210 ------- 1 0.0 4.0 66 66
- 1.2475 0 2 cbr 210 ------- 1 0.0 4.0 66 66
r 1.24793 0 2 cbr 210 ------- 1 0.0 4.0 63 63
+ 1.24793 2 3 cbr 210 ------- 1 0.0 4.0 63 63
- 1.24793 2 3 cbr 210 ------- 1 0.0 4.0 63 63
r 1.24836 2 3 cbr 210 ------- 1 0.0 4.0 60 60
+ 1.24836 3 4 cbr 210 ------- 1 0.0 4.0 60 60
- 1.24836 3 4 cbr 210 ------- 1 0.0 4.0 60 60
r 1.24879 3 4 cbr 210 ------- 1 0.0 4.0 57 57
+ 1.25125 0 2 cbr 210 ------- 1 0.0 4.0 67 67
- 1.25125 0 2 cbr 210 ------- 1 0.0 4.0 67 67
r 1.25168 0 2 cbr 210 ------- 1 0.0 4.0 64 64
+ 1.25168 2 3 cbr 210 ------- 1 0.0 4.0 64 64
- 1.25168 2 3 cbr 210 ------- 1 0.0 4.0 64 64
r 1.25211 2 3 cbr 210 ------- 1 0.0 4.0 61 61
+ 1.25211 3 4 cbr 210 ------- 1 0.0 4.0 61 61
- 1.25211 3 4 cbr 210 ------- 1 0.0 4.0 61 61
r 1.25254 3 4 cbr 210 ------- 1 0.0 4.0 58 58
+ 1.255 0 2 cbr 210 ------- 1 0.0 4.0 68 68
- 1.255 0 2 cbr 210 ------- 1 0.0 4.0 68 68
r 1.25543 0 2 cbr 210 ------- 1 0.0 4.0 65 65
+ 1.25543 2 3 cbr 210 ------- 1 0.0 4.0 65 65
- 1.25543 2 3 cbr 210 ------- 1 0.0 4.0 65 65
r 1.25586 2 3 cbr 210 ------- 1 0.0 4.0 62 62
+ 1.25586 3 4 cbr 210 ------- 1 0.0 4.0 62 62
- 1.25586 3 4 cbr 210 ------- 1 0.0 4.0 62 62
r 1.25629 3 4 cbr 210 ------- 1 0.0 4.0 59 59
+ 1.25875 0 2 cbr 210 ------- 1 0.0 4.0 69 69
- 1.25875 0 2 cbr 210 ------- 1 0.0 4.0 69 69
r 1.25918 0 2 cbr 210 ------- 1 0.0 4.0 66 66
+ 1.25918 2 3 cbr 210 ------- 1 0.0 4.0 66 66
- 1.25918 2 3 cbr 210 ------- 1 0.0 4.0 66 66
r 1.25961 2 3 cbr 210 ------- 1 0.0 4.0 63 63
+ 1.25961 3 4 cbr 210 ------- 1 0.0 4.0 63 63
- 1.25961 3 4 cbr 210 ------- 1 0.0 4.0 63 63
r 1.26004 3 4 cbr 210 ------- 1 0.0 4.0 60 60
+ 1.2625 0 2 cbr 210 ------- 1 0.0 4.0 70 70
- 1.2625 0 2 cbr 210 ------- 1 0.0 4.0 70 70
r 1.26293 0 2 cbr 210 ------- 1 0.0 4.0 67 67
+ 1.26293 2 3 cbr 210 ------- 1 0.0 4.0 67 67
- 1.26293 2 3 cbr 210 ------- 1 0.0 4.0 67 67
r 1.26336 2 3 cbr 210 ------- 1 0.0 4.0 64 64
+ 1.26336 3 4 cbr 210 ------- 1 0.0 4.0 64 64
- 1.26336 3 4 cbr 210 ------- 1 0.0 4.0 64 64
r 1.26379 3 4 cbr 210 ------- 1 0.0 4.0 61 61
+ 1.26625 0 2 cbr 210 ------- 1 0.0 4.0 71 71
- 1.26625 0 2 cbr 210 ------- 1 0.0 4.0 71 71
r 1.26668 0 2 cbr 210 ------- 1 0.0 4.0 68 68
+ 1.26668 2 3 cbr 210 ------- 1 0.0 4.0 68 68
- 1.26668 2 3 cbr 210 ------- 1 0.0 4.0 68 68
r 1.26711 2 3 cbr 210 ------- 1 0.0 4.0 65 65
+ 1.26711 3 4 cbr 210 ------- 1 0.0 4.0 65 65
- 1.26711 3 4 cbr 210 ------- 1 0.0 4.0 65 65
r 1.26754 3 4 cbr 210 ------- 1 0.0 4.0 62 62
+ 1.27 0 2 cbr 210 ------- 1 0.0 4.0 72 72
- 1.27 0 2 cbr 210 ------- 1 0.0 4.0 72 72
r 1.27043 0 2 cbr 210 ------- 1 0.0 4.0 69 69
+ 1.27043 2 3 cbr 210 ------- 1 0.0 4.0 69 69
- 1.27043 2 3 cbr 210 ------- 1 0.0 4.0 69 69
r 1.27086 2 3 cbr 210 ------- 1 0.0 4.0 66 66
+ 1.27086 3 4 cbr 210 ------- 1 0.0 4.0 66 66
- 1.27086 3 4 cbr 210 ------- 1 0.0 4.0 66 66
r 1.27129 3 4 cbr 210 ------- 1 0.0 4.0 63 63
+ 1.27375 0 2 cbr 210 ------- 1 0.0 4.0 73 73
- 1.27375 0 2 cbr 210 ------- 1 0.0 4.0 73 73
r 1.27418 0 2 cbr 210 ------- 1 0.0 4.0 70 70
+ 1.27418 2 3 cbr 210 ------- 1 0.0 4.0 70 70
- 1.27418 2 3 cbr 210 ------- 1 0.0 4.0 70 70
r 1.27461 2 3 cbr 210 ------- 1 0.0 4.0 67 67
+ 1.27461 3 4 cbr 210 ------- 1 0.0 4.0 67 67
- 1.27461 3 4 cbr 210 ------- 1 0.0 4.0 67 67
r 1.27504 3 4 cbr 210 ------- 1 0.0 4.0 64 64
+ 1.2775 0 2 cbr 210 ------- 1 0.0 4.0 74 74
- 1.2775 0 2 cbr 210 ------- 1 0.0 4.0 74 74
r 1.27793 0 2 cbr 210 ------- 1 0.0 4.0 71 71
+ 1.27793 2 3 cbr 210 ------- 1 0.0 4.0 71 71
- 1.27793 2 3 cbr 210 ------- 1 0.0 4.0 71 71
r 1.27836 2 3 cbr 210 ------- 1 0.0 4.0 68 68
+ 1.27836 3 4 cbr 210 ------- 1 0.0 4.0 68 68
- 1.27836 3 4 cbr 210 ------- 1 0.0 4.0 68 68
r 1.27879 3 4 cbr 210 ------- 1 0.0 4.0 65 65
+ 1.28125 0 2 cbr 210 ------- 1 0.0 4.0 75 75
- 1.28125 0 2 cbr 210 ------- 1 0.0 4.0 75 75
r 1.28168 0 2 cbr 210 ------- 1 0.0 4.0 72 72
+ 1.28168 2 3 cbr 210 ------- 1 0.0 4.0 72 72
- 1.28168 2 3 cbr 210 ------- 1 0.0 4.0 72 72
r 1.28211 2 3 cbr 210 ------- 1 0.0 4.0 69 69
+ 1.28211 3 4 cbr 210 ------- 1 0.0 4.0 69 69
- 1.28211 3 4 cbr 210 ------- 1 0.0 4.0 69 69
r 1.28254 3 4 cbr 210 ------- 1 0.0 4.0 66 66
+ 1.285 0 2 cbr 210 ------- 1 0.0 4.0 76 76
- 1.285 0 2 cbr 210 ------- 1 0.0 4.0 76 76
r 1.28543 0 2 cbr 210 ------- 1 0.0 4.0 73 73
+ 1.28543 2 3 cbr 210 ------- 1 0.0 4.0 73 73
- 1.28543 2 3 cbr 210 ------- 1 0.0 4.0 73 73
r 1.28586 2 3 cbr 210 ------- 1 0.0 4.0 70 70
+ 1.28586 3 4 cbr 210 ------- 1 0.0 4.0 70 70
- 1.28586 3 4 cbr 210 ------- 1 0.0 4.0 70 70
r 1.28629 3 4 cbr 210 ------- 1 0.0 4.0 67 67
+ 1.28875 0 2 cbr 210 ------- 1 0.0 4.0 77 77
- 1.28875 0 2 cbr 210 ------- 1 0.0 4.0 77 77