+ 1 0 1 tcp 40 ------- 1 0.0 3.0 0 0
- 1 0 1 tcp 40 ------- 1 0.0 3.0 0 0
r 1.010032 0 1 tcp 40 ------- 1 0.0 3.0 0 0
+ 1.010032 1 2 tcp 40 ------- 1 0.0 3.0 0 0
- 1.010032 1 2 tcp 40 ------- 1 0.0 3.0 0 0
r 1.510064 1 2 tcp 40 ------- 1 0.0 3.0 0 0
+ 1.510064 2 3 tcp 40 ------- 1 0.0 3.0 0 0
- 1.510064 2 3 tcp 40 ------- 1 0.0 3.0 0 0
r 1.520096 2 3 tcp 40 ------- 1 0.0 3.0 0 0
+ 1.520096 3 2 ack 40 ------- 1 3.0 0.0 0 1
- 1.520096 3 2 ack 40 ------- 1 3.0 0.0 0 1
r 1.530128 3 2 ack 40 ------- 1 3.0 0.0 0 1
+ 1.530128 2 1 ack 40 ------- 1 3.0 0.0 0 1
- 1.530128 2 1 ack 40 ------- 1 3.0 0.0 0 1
r 2.03016 2 1 ack 40 ------- 1 3.0 0.0 0 1
+ 2.03016 1 0 ack 40 ------- 1 3.0 0.0 0 1
- 2.03016 1 0 ack 40 ------- 1 3.0 0.0 0 1
r 2.040192 1 0 ack 40 ------- 1 3.0 0.0 0 1
+ 2.040192 0 1 tcp 1040 ------- 1 0.0 3.0 1 2
- 2.040192 0 1 tcp 1040 ------- 1 0.0 3.0 1 2
+ 2.040192 0 1 tcp 1040 ------- 1 0.0 3.0 2 3
- 2.041024 0 1 tcp 1040 ------- 1 0.0 3.0 2 3
r 2.051024 0 1 tcp 1040 ------- 1 0.0 3.0 1 2
+ 2.051024 1 2 tcp 1040 ------- 1 0.0 3.0 1 2
- 2.051024 1 2 tcp 1040 ------- 1 0.0 3.0 1 2
r 2.051856 0 1 tcp 1040 ------- 1 0.0 3.0 2 3
+ 2.051856 1 2 tcp 1040 ------- 1 0.0 3.0 2 3
- 2.051856 1 2 tcp 1040 ------- 1 0.0 3.0 2 3
r 2.551856 1 2 tcp 1040 ------- 1 0.0 3.0 1 2
+ 2.551856 2 3 tcp 1040 ------- 1 0.0 3.0 1 2
- 2.551856 2 3 tcp 1040 ------- 1 0.0 3.0 1 2
r 2.552688 1 2 tcp 1040 ------- 1 0.0 3.0 2 3
+ 2.552688 2 3 tcp 1040 ------- 1 0.0 3.0 2 3
- 2.552688 2 3 tcp 1040 ------- 1 0.0 3.0 2 3
r 2.562688 2 3 tcp 1040 ------- 1 0.0 3.0 1 2
+ 2.562688 3 2 ack 40 ------- 1 3.0 0.0 1 4
- 2.562688 3 2 ack 40 ------- 1 3.0 0.0 1 4
r 2.56352 2 3 tcp 1040 ------- 1 0.0 3.0 2 3
+ 2.56352 3 2 ack 40 ------- 1 3.0 0.0 2 5
- 2.56352 3 2 ack 40 ------- 1 3.0 0.0 2 5
r 2.57272 3 2 ack 40 ------- 1 3.0 0.0 1 4
+ 2.57272 2 1 ack 40 ------- 1 3.0 0.0 1 4
- 2.57272 2 1 ack 40 ------- 1 3.0 0.0 1 4
r 2.573552 3 2 ack 40 ------- 1 3.0 0.0 2 5
+ 2.573552 2 1 ack 40 ------- 1 3.0 0.0 2 5
- 2.573552 2 1 ack 40 ------- 1 3.0 0.0 2 5
r 3.072752 2 1 ack 40 ------- 1 3.0 0.0 1 4
+ 3.072752 1 0 ack 40 ------- 1 3.0 0.0 1 4
- 3.072752 1 0 ack 40 ------- 1 3.0 0.0 1 4
r 3.073584 2 1 ack 40 ------- 1 3.0 0.0 2 5
+ 3.073584 1 0 ack 40 ------- 1 3.0 0.0 2 5
- 3.073584 1 0 ack 40 ------- 1 3.0 0.0 2 5
r 3.082784 1 0 ack 40 ------- 1 3.0 0.0 1 4
+ 3.082784 0 1 tcp 1040 ------- 1 0.0 3.0 3 6
- 3.082784 0 1 tcp 1040 ------- 1 0.0 3.0 3 6
+ 3.082784 0 1 tcp 1040 ------- 1 0.0 3.0 4 7
r 3.083616 1 0 ack 40 ------- 1 3.0 0.0 2 5
+ 3.083616 0 1 tcp 1040 ------- 1 0.0 3.0 5 8
+ 3.083616 0 1 tcp 1040 ------- 1 0.0 3.0 6 9
- 3.083616 0 1 tcp 1040 ------- 1 0.0 3.0 4 7
- 3.084448 0 1 tcp 1040 ------- 1 0.0 3.0 5 8
- 3.08528 0 1 tcp 1040 ------- 1 0.0 3.0 6 9
r 3.093616 0 1 tcp 1040 ------- 1 0.0 3.0 3 6
+ 3.093616 1 2 tcp 1040 ------- 1 0.0 3.0 3 6
- 3.093616 1 2 tcp 1040 ------- 1 0.0 3.0 3 6
r 3.094448 0 1 tcp 1040 ------- 1 0.0 3.0 4 7
+ 3.094448 1 2 tcp 1040 ------- 1 0.0 3.0 4 7
- 3.094448 1 2 tcp 1040 ------- 1 0.0 3.0 4 7
r 3.09528 0 1 tcp 1040 ------- 1 0.0 3.0 5 8
+ 3.09528 1 2 tcp 1040 ------- 1 0.0 3.0 5 8
- 3.09528 1 2 tcp 1040 ------- 1 0.0 3.0 5 8
r 3.096112 0 1 tcp 1040 ------- 1 0.0 3.0 6 9
+ 3.096112 1 2 tcp 1040 ------- 1 0.0 3.0 6 9
- 3.096112 1 2 tcp 1040 ------- 1 0.0 3.0 6 9
r 3.594448 1 2 tcp 1040 ------- 1 0.0 3.0 3 6
+ 3.594448 2 3 tcp 1040 ------- 1 0.0 3.0 3 6
- 3.594448 2 3 tcp 1040 ------- 1 0.0 3.0 3 6
r 3.59528 1 2 tcp 1040 ------- 1 0.0 3.0 4 7
+ 3.59528 2 3 tcp 1040 ------- 1 0.0 3.0 4 7
- 3.59528 2 3 tcp 1040 ------- 1 0.0 3.0 4 7
r 3.596112 1 2 tcp 1040 ------- 1 0.0 3.0 5 8
+ 3.596112 2 3 tcp 1040 ------- 1 0.0 3.0 5 8
- 3.596112 2 3 tcp 1040 ------- 1 0.0 3.0 5 8
r 3.596944 1 2 tcp 1040 ------- 1 0.0 3.0 6 9
+ 3.596944 2 3 tcp 1040 ------- 1 0.0 3.0 6 9
- 3.596944 2 3 tcp 1040 ------- 1 0.0 3.0 6 9
r 3.60528 2 3 tcp 1040 ------- 1 0.0 3.0 3 6
+ 3.60528 3 2 ack 40 ------- 1 3.0 0.0 3 10
- 3.60528 3 2 ack 40 ------- 1 3.0 0.0 3 10
r 3.606112 2 3 tcp 1040 ------- 1 0.0 3.0 4 7
+ 3.606112 3 2 ack 40 ------- 1 3.0 0.0 4 11
- 3.606112 3 2 ack 40 ------- 1 3.0 0.0 4 11
r 3.606944 2 3 tcp 1040 ------- 1 0.0 3.0 5 8
+ 3.606944 3 2 ack 40 ------- 1 3.0 0.0 5 12
- 3.606944 3 2 ack 40 ------- 1 3.0 0.0 5 12
r 3.607776 2 3 tcp 1040 ------- 1 0.0 3.0 6 9
+ 3.607776 3 2 ack 40 ------- 1 3.0 0.0 6 13
- 3.607776 3 2 ack 40 ------- 1 3.0 0.0 6 13
r 3.615312 3 2 ack 40 ------- 1 3.0 0.0 3 10
+ 3.615312 2 1 ack 40 ------- 1 3.0 0.0 3 10
- 3.615312 2 1 ack 40 ------- 1 3.0 0.0 3 10
r 3.616144 3 2 ack 40 ------- 1 3.0 0.0 4 11
+ 3.616144 2 1 ack 40 ------- 1 3.0 0.0 4 11
- 3.616144 2 1 ack 40 ------- 1 3.0 0.0 4 11
r 3.616976 3 2 ack 40 ------- 1 3.0 0.0 5 12
+ 3.616976 2 1 ack 40 ------- 1 3.0 0.0 5 12
- 3.616976 2 1 ack 40 ------- 1 3.0 0.0 5 12
r 3.617808 3 2 ack 40 ------- 1 3.0 0.0 6 13
+ 3.617808 2 1 ack 40 ------- 1 3.0 0.0 6 13
- 3.617808 2 1 ack 40 ------- 1 3.0 0.0 6 13
r 4.115344 2 1 ack 40 ------- 1 3.0 0.0 3 10
+ 4.115344 1 0 ack 40 ------- 1 3.0 0.0 3 10
- 4.115344 1 0 ack 40 ------- 1 3.0 0.0 3 10
r 4.116176 2 1 ack 40 ------- 1 3.0 0.0 4 11
+ 4.116176 1 0 ack 40 ------- 1 3.0 0.0 4 11
- 4.116176 1 0 ack 40 ------- 1 3.0 0.0 4 11
r 4.117008 2 1 ack 40 ------- 1 3.0 0.0 5 12
+ 4.117008 1 0 ack 40 ------- 1 3.0 0.0 5 12
- 4.117008 1 0 ack 40 ------- 1 3.0 0.0 5 12
r 4.11784 2 1 ack 40 ------- 1 3.0 0.0 6 13
+ 4.11784 1 0 ack 40 ------- 1 3.0 0.0 6 13
- 4.11784 1 0 ack 40 ------- 1 3.0 0.0 6 13
r 4.125376 1 0 ack 40 ------- 1 3.0 0.0 3 10
+ 4.125376 0 1 tcp 1040 ------- 1 0.0 3.0 7 14
- 4.125376 0 1 tcp 1040 ------- 1 0.0 3.0 7 14
+ 4.125376 0 1 tcp 1040 ------- 1 0.0 3.0 8 15
r 4.126208 1 0 ack 40 ------- 1 3.0 0.0 4 11
+ 4.126208 0 1 tcp 1040 ------- 1 0.0 3.0 9 16
+ 4.126208 0 1 tcp 1040 ------- 1 0.0 3.0 10 17
- 4.126208 0 1 tcp 1040 ------- 1 0.0 3.0 8 15
r 4.12704 1 0 ack 40 ------- 1 3.0 0.0 5 12
+ 4.12704 0 1 tcp 1040 ------- 1 0.0 3.0 11 18
+ 4.12704 0 1 tcp 1040 ------- 1 0.0 3.0 12 19
- 4.12704 0 1 tcp 1040 ------- 1 0.0 3.0 9 16
r 4.127872 1 0 ack 40 ------- 1 3.0 0.0 6 13
+ 4.127872 0 1 tcp 1040 ------- 1 0.0 3.0 13 20
+ 4.127872 0 1 tcp 1040 ------- 1 0.0 3.0 14 21
- 4.127872 0 1 tcp 1040 ------- 1 0.0 3.0 10 17
- 4.128704 0 1 tcp 1040 ------- 1 0.0 3.0 11 18
- 4.129536 0 1 tcp 1040 ------- 1 0.0 3.0 12 19
- 4.130368 0 1 tcp 1040 ------- 1 0.0 3.0 13 20
- 4.1312 0 1 tcp 1040 ------- 1 0.0 3.0 14 21
r 4.136208 0 1 tcp 1040 ------- 1 0.0 3.0 7 14
+ 4.136208 1 2 tcp 1040 ------- 1 0.0 3.0 7 14
- 4.136208 1 2 tcp 1040 ------- 1 0.0 3.0 7 14
r 4.13704 0 1 tcp 1040 ------- 1 0.0 3.0 8 15
+ 4.13704 1 2 tcp 1040 ------- 1 0.0 3.0 8 15
- 4.13704 1 2 tcp 1040 ------- 1 0.0 3.0 8 15
r 4.137872 0 1 tcp 1040 ------- 1 0.0 3.0 9 16
+ 4.137872 1 2 tcp 1040 ------- 1 0.0 3.0 9 16
- 4.137872 1 2 tcp 1040 ------- 1 0.0 3.0 9 16
r 4.138704 0 1 tcp 1040 ------- 1 0.0 3.0 10 17
+ 4.138704 1 2 tcp 1040 ------- 1 0.0 3.0 10 17
- 4.138704 1 2 tcp 1040 ------- 1 0.0 3.0 10 17
r 4.139536 0 1 tcp 1040 ------- 1 0.0 3.0 11 18
+ 4.139536 1 2 tcp 1040 ------- 1 0.0 3.0 11 18
- 4.139536 1 2 tcp 1040 ------- 1 0.0 3.0 11 18
r 4.140368 0 1 tcp 1040 ------- 1 0.0 3.0 12 19
+ 4.140368 1 2 tcp 1040 ------- 1 0.0 3.0 12 19
- 4.140368 1 2 tcp 1040 ------- 1 0.0 3.0 12 19
r 4.1412 0 1 tcp 1040 ------- 1 0.0 3.0 13 20
+ 4.1412 1 2 tcp 1040 ------- 1 0.0 3.0 13 20
- 4.1412 1 2 tcp 1040 ------- 1 0.0 3.0 13 20
r 4.142032 0 1 tcp 1040 ------- 1 0.0 3.0 14 21
+ 4.142032 1 2 tcp 1040 ------- 1 0.0 3.0 14 21
- 4.142032 1 2 tcp 1040 ------- 1 0.0 3.0 14 21
r 4.63704 1 2 tcp 1040 ------- 1 0.0 3.0 7 14
+ 4.63704 2 3 tcp 1040 ------- 1 0.0 3.0 7 14
- 4.63704 2 3 tcp 1040 ------- 1 0.0 3.0 7 14
r 4.637872 1 2 tcp 1040 ------- 1 0.0 3.0 8 15
+ 4.637872 2 3 tcp 1040 ------- 1 0.0 3.0 8 15
- 4.637872 2 3 tcp 1040 ------- 1 0.0 3.0 8 15
r 4.638704 1 2 tcp 1040 ------- 1 0.0 3.0 9 16
+ 4.638704 2 3 tcp 1040 ------- 1 0.0 3.0 9 16
- 4.638704 2 3 tcp 1040 ------- 1 0.0 3.0 9 16
r 4.639536 1 2 tcp 1040 ------- 1 0.0 3.0 10 17
+ 4.639536 2 3 tcp 1040 ------- 1 0.0 3.0 10 17
- 4.639536 2 3 tcp 1040 ------- 1 0.0 3.0 10 17
r 4.640368 1 2 tcp 1040 ------- 1 0.0 3.0 11 18
+ 4.640368 2 3 tcp 1040 ------- 1 0.0 3.0 11 18
- 4.640368 2 3 tcp 1040 ------- 1 0.0 3.0 11 18
r 4.6412 1 2 tcp 1040 ------- 1 0.0 3.0 12 19
+ 4.6412 2 3 tcp 1040 ------- 1 0.0 3.0 12 19
- 4.6412 2 3 tcp 1040 ------- 1 0.0 3.0 12 19
r 4.642032 1 2 tcp 1040 ------- 1 0.0 3.0 13 20
+ 4.642032 2 3 tcp 1040 ------- 1 0.0 3.0 13 20
- 4.642032 2 3 tcp 1040 ------- 1 0.0 3.0 13 20
r 4.642864 1 2 tcp 1040 ------- 1 0.0 3.0 14 21
+ 4.642864 2 3 tcp 1040 ------- 1 0.0 3.0 14 21
- 4.642864 2 3 tcp 1040 ------- 1 0.0 3.0 14 21
r 4.647872 2 3 tcp 1040 ------- 1 0.0 3.0 7 14
+ 4.647872 3 2 ack 40 ------- 1 3.0 0.0 7 22
- 4.647872 3 2 ack 40 ------- 1 3.0 0.0 7 22
r 4.648704 2 3 tcp 1040 ------- 1 0.0 3.0 8 15
+ 4.648704 3 2 ack 40 ------- 1 3.0 0.0 8 23
- 4.648704 3 2 ack 40 ------- 1 3.0 0.0 8 23
r 4.649536 2 3 tcp 1040 ------- 1 0.0 3.0 9 16
+ 4.649536 3 2 ack 40 ------- 1 3.0 0.0 9 24
- 4.649536 3 2 ack 40 ------- 1 3.0 0.0 9 24
r 4.650368 2 3 tcp 1040 ------- 1 0.0 3.0 10 17
+ 4.650368 3 2 ack 40 ------- 1 3.0 0.0 10 25
- 4.650368 3 2 ack 40 ------- 1 3.0 0.0 10 25
r 4.6512 2 3 tcp 1040 ------- 1 0.0 3.0 11 18
+ 4.6512 3 2 ack 40 ------- 1 3.0 0.0 11 26
- 4.6512 3 2 ack 40 ------- 1 3.0 0.0 11 26
r 4.652032 2 3 tcp 1040 ------- 1 0.0 3.0 12 19
+ 4.652032 3 2 ack 40 ------- 1 3.0 0.0 12 27
- 4.652032 3 2 ack 40 ------- 1 3.0 0.0 12 27
r 4.652864 2 3 tcp 1040 ------- 1 0.0 3.0 13 20
+ 4.652864 3 2 ack 40 ------- 1 3.0 0.0 13 28
- 4.652864 3 2 ack 40 ------- 1 3.0 0.0 13 28
r 4.653696 2 3 tcp 1040 ------- 1 0.0 3.0 14 21
+ 4.653696 3 2 ack 40 ------- 1 3.0 0.0 14 29
- 4.653696 3 2 ack 40 ------- 1 3.0 0.0 14 29
r 4.657904 3 2 ack 40 ------- 1 3.0 0.0 7 22
+ 4.657904 2 1 ack 40 ------- 1 3.0 0.0 7 22
- 4.657904 2 1 ack 40 ------- 1 3.0 0.0 7 22
r 4.658736 3 2 ack 40 ------- 1 3.0 0.0 8 23
+ 4.658736 2 1 ack 40 ------- 1 3.0 0.0 8 23
- 4.658736 2 1 ack 40 ------- 1 3.0 0.0 8 23
r 4.659568 3 2 ack 40 ------- 1 3.0 0.0 9 24
+ 4.659568 2 1 ack 40 ------- 1 3.0 0.0 9 24
- 4.659568 2 1 ack 40 ------- 1 3.0 0.0 9 24
r 4.6604 3 2 ack 40 ------- 1 3.0 0.0 10 25
+ 4.6604 2 1 ack 40 ------- 1 3.0 0.0 10 25
- 4.6604 2 1 ack 40 ------- 1 3.0 0.0 10 25
r 4.661232 3 2 ack 40 ------- 1 3.0 0.0 11 26
+ 4.661232 2 1 ack 40 ------- 1 3.0 0.0 11 26
- 4.661232 2 1 ack 40 ------- 1 3.0 0.0 11 26
r 4.662064 3 2 ack 40 ------- 1 3.0 0.0 12 27
+ 4.662064 2 1 ack 40 ------- 1 3.0 0.0 12 27
- 4.662064 2 1 ack 40 ------- 1 3.0 0.0 12 27
r 4.662896 3 2 ack 40 ------- 1 3.0 0.0 13 28
+ 4.662896 2 1 ack 40 ------- 1 3.0 0.0 13 28
- 4.662896 2 1 ack 40 ------- 1 3.0 0.0 13 28
r 4.663728 3 2 ack 40 ------- 1 3.0 0.0 14 29
+ 4.663728 2 1 ack 40 ------- 1 3.0 0.0 14 29
- 4.663728 2 1 ack 40 ------- 1 3.0 0.0 14 29
r 5.157936 2 1 ack 40 ------- 1 3.0 0.0 7 22
+ 5.157936 1 0 ack 40 ------- 1 3.0 0.0 7 22
- 5.157936 1 0 ack 40 ------- 1 3.0 0.0 7 22
r 5.158768 2 1 ack 40 ------- 1 3.0 0.0 8 23
+ 5.158768 1 0 ack 40 ------- 1 3.0 0.0 8 23
- 5.158768 1 0 ack 40 ------- 1 3.0 0.0 8 23
r 5.1596 2 1 ack 40 ------- 1 3.0 0.0 9 24
+ 5.1596 1 0 ack 40 ------- 1 3.0 0.0 9 24
- 5.1596 1 0 ack 40 ------- 1 3.0 0.0 9 24
r 5.160432 2 1 ack 40 ------- 1 3.0 0.0 10 25
+ 5.160432 1 0 ack 40 ------- 1 3.0 0.0 10 25
- 5.160432 1 0 ack 40 ------- 1 3.0 0.0 10 25
r 5.161264 2 1 ack 40 ------- 1 3.0 0.0 11 26
+ 5.161264 1 0 ack 40 ------- 1 3.0 0.0 11 26
- 5.161264 1 0 ack 40 ------- 1 3.0 0.0 11 26
r 5.162096 2 1 ack 40 ------- 1 3.0 0.0 12 27
+ 5.162096 1 0 ack 40 ------- 1 3.0 0.0 12 27
- 5.162096 1 0 ack 40 ------- 1 3.0 0.0 12 27
r 5.162928 2 1 ack 40 ------- 1 3.0 0.0 13 28
+ 5.162928 1 0 ack 40 ------- 1 3.0 0.0 13 28
- 5.162928 1 0 ack 40 ------- 1 3.0 0.0 13 28
r 5.16376 2 1 ack 40 ------- 1 3.0 0.0 14 29
+ 5.16376 1 0 ack 40 ------- 1 3.0 0.0 14 29
- 5.16376 1 0 ack 40 ------- 1 3.0 0.0 14 29
r 5.167968 1 0 ack 40 ------- 1 3.0 0.0 7 22
+ 5.167968 0 1 tcp 1040 ------- 1 0.0 3.0 15 30
- 5.167968 0 1 tcp 1040 ------- 1 0.0 3.0 15 30
+ 5.167968 0 1 tcp 1040 ------- 1 0.0 3.0 16 31
r 5.1688 1 0 ack 40 ------- 1 3.0 0.0 8 23
+ 5.1688 0 1 tcp 1040 ------- 1 0.0 3.0 17 32
+ 5.1688 0 1 tcp 1040 ------- 1 0.0 3.0 18 33
- 5.1688 0 1 tcp 1040 ------- 1 0.0 3.0 16 31
r 5.169632 1 0 ack 40 ------- 1 3.0 0.0 9 24
+ 5.169632 0 1 tcp 1040 ------- 1 0.0 3.0 19 34
+ 5.169632 0 1 tcp 1040 ------- 1 0.0 3.0 20 35
- 5.169632 0 1 tcp 1040 ------- 1 0.0 3.0 17 32
r 5.170464 1 0 ack 40 ------- 1 3.0 0.0 10 25
+ 5.170464 0 1 tcp 1040 ------- 1 0.0 3.0 21 36
+ 5.170464 0 1 tcp 1040 ------- 1 0.0 3.0 22 37
- 5.170464 0 1 tcp 1040 ------- 1 0.0 3.0 18 33
r 5.171296 1 0 ack 40 ------- 1 3.0 0.0 11 26
+ 5.171296 0 1 tcp 1040 ------- 1 0.0 3.0 23 38
+ 5.171296 0 1 tcp 1040 ------- 1 0.0 3.0 24 39
- 5.171296 0 1 tcp 1040 ------- 1 0.0 3.0 19 34
r 5.172128 1 0 ack 40 ------- 1 3.0 0.0 12 27
+ 5.172128 0 1 tcp 1040 ------- 1 0.0 3.0 25 40
+ 5.172128 0 1 tcp 1040 ------- 1 0.0 3.0 26 41
- 5.172128 0 1 tcp 1040 ------- 1 0.0 3.0 20 35
r 5.17296 1 0 ack 40 ------- 1 3.0 0.0 13 28
+ 5.17296 0 1 tcp 1040 ------- 1 0.0 3.0 27 42
+ 5.17296 0 1 tcp 1040 ------- 1 0.0 3.0 28 43
- 5.17296 0 1 tcp 1040 ------- 1 0.0 3.0 21 36
r 5.173792 1 0 ack 40 ------- 1 3.0 0.0 14 29
+ 5.173792 0 1 tcp 1040 ------- 1 0.0 3.0 29 44
+ 5.173792 0 1 tcp 1040 ------- 1 0.0 3.0 30 45
- 5.173792 0 1 tcp 1040 ------- 1 0.0 3.0 22 37
- 5.174624 0 1 tcp 1040 ------- 1 0.0 3.0 23 38
- 5.175456 0 1 tcp 1040 ------- 1 0.0 3.0 24 39
- 5.176288 0 1 tcp 1040 ------- 1 0.0 3.0 25 40
- 5.17712 0 1 tcp 1040 ------- 1 0.0 3.0 26 41
- 5.177952 0 1 tcp 1040 ------- 1 0.0 3.0 27 42
- 5.178784 0 1 tcp 1040 ------- 1 0.0 3.0 28 43
r 5.1788 0 1 tcp 1040 ------- 1 0.0 3.0 15 30
+ 5.1788 1 2 tcp 1040 ------- 1 0.0 3.0 15 30
- 5.1788 1 2 tcp 1040 ------- 1 0.0 3.0 15 30
- 5.179616 0 1 tcp 1040 ------- 1 0.0 3.0 29 44
r 5.179632 0 1 tcp 1040 ------- 1 0.0 3.0 16 31
+ 5.179632 1 2 tcp 1040 ------- 1 0.0 3.0 16 31
- 5.179632 1 2 tcp 1040 ------- 1 0.0 3.0 16 31
- 5.180448 0 1 tcp 1040 ------- 1 0.0 3.0 30 45
r 5.180464 0 1 tcp 1040 ------- 1 0.0 3.0 17 32
+ 5.180464 1 2 tcp 1040 ------- 1 0.0 3.0 17 32
- 5.180464 1 2 tcp 1040 ------- 1 0.0 3.0 17 32
r 5.181296 0 1 tcp 1040 ------- 1 0.0 3.0 18 33
+ 5.181296 1 2 tcp 1040 ------- 1 0.0 3.0 18 33
- 5.181296 1 2 tcp 1040 ------- 1 0.0 3.0 18 33
r 5.182128 0 1 tcp 1040 ------- 1 0.0 3.0 19 34
+ 5.182128 1 2 tcp 1040 ------- 1 0.0 3.0 19 34
- 5.182128 1 2 tcp 1040 ------- 1 0.0 3.0 19 34
r 5.18296 0 1 tcp 1040 ------- 1 0.0 3.0 20 35
+ 5.18296 1 2 tcp 1040 ------- 1 0.0 3.0 20 35
- 5.18296 1 2 tcp 1040 ------- 1 0.0 3.0 20 35
r 5.183792 0 1 tcp 1040 ------- 1 0.0 3.0 21 36
+ 5.183792 1 2 tcp 1040 ------- 1 0.0 3.0 21 36
- 5.183792 1 2 tcp 1040 ------- 1 0.0 3.0 21 36
r 5.184624 0 1 tcp 1040 ------- 1 0.0 3.0 22 37
+ 5.184624 1 2 tcp 1040 ------- 1 0.0 3.0 22 37
- 5.184624 1 2 tcp 1040 ------- 1 0.0 3.0 22 37
r 5.185456 0 1 tcp 1040 ------- 1 0.0 3.0 23 38
+ 5.185456 1 2 tcp 1040 ------- 1 0.0 3.0 23 38
- 5.185456 1 2 tcp 1040 ------- 1 0.0 3.0 23 38
r 5.186288 0 1 tcp 1040 ------- 1 0.0 3.0 24 39
+ 5.186288 1 2 tcp 1040 ------- 1 0.0 3.0 24 39
- 5.186288 1 2 tcp 1040 ------- 1 0.0 3.0 24 39
r 5.18712 0 1 tcp 1040 ------- 1 0.0 3.0 25 40
+ 5.18712 1 2 tcp 1040 ------- 1 0.0 3.0 25 40
- 5.18712 1 2 tcp 1040 ------- 1 0.0 3.0 25 40
r 5.187952 0 1 tcp 1040 ------- 1 0.0 3.0 26 41
+ 5.187952 1 2 tcp 1040 ------- 1 0.0 3.0 26 41
- 5.187952 1 2 tcp 1040 ------- 1 0.0 3.0 26 41
r 5.188784 0 1 tcp 1040 ------- 1 0.0 3.0 27 42
+ 5.188784 1 2 tcp 1040 ------- 1 0.0 3.0 27 42
- 5.188784 1 2 tcp 1040 ------- 1 0.0 3.0 27 42
r 5.189616 0 1 tcp 1040 ------- 1 0.0 3.0 28 43
+ 5.189616 1 2 tcp 1040 ------- 1 0.0 3.0 28 43
- 5.189616 1 2 tcp 1040 ------- 1 0.0 3.0 28 43
r 5.190448 0 1 tcp 1040 ------- 1 0.0 3.0 29 44
+ 5.190448 1 2 tcp 1040 ------- 1 0.0 3.0 29 44
- 5.190448 1 2 tcp 1040 ------- 1 0.0 3.0 29 44
r 5.19128 0 1 tcp 1040 ------- 1 0.0 3.0 30 45
+ 5.19128 1 2 tcp 1040 ------- 1 0.0 3.0 30 45
- 5.19128 1 2 tcp 1040 ------- 1 0.0 3.0 30 45
r 5.679632 1 2 tcp 1040 ------- 1 0.0 3.0 15 30
+ 5.679632 2 3 tcp 1040 ------- 1 0.0 3.0 15 30
- 5.679632 2 3 tcp 1040 ------- 1 0.0 3.0 15 30
r 5.680464 1 2 tcp 1040 ------- 1 0.0 3.0 16 31
+ 5.680464 2 3 tcp 1040 ------- 1 0.0 3.0 16 31
- 5.680464 2 3 tcp 1040 ------- 1 0.0 3.0 16 31
r 5.681296 1 2 tcp 1040 ------- 1 0.0 3.0 17 32
+ 5.681296 2 3 tcp 1040 ------- 1 0.0 3.0 17 32
- 5.681296 2 3 tcp 1040 ------- 1 0.0 3.0 17 32
r 5.682128 1 2 tcp 1040 ------- 1 0.0 3.0 18 33
+ 5.682128 2 3 tcp 1040 ------- 1 0.0 3.0 18 33
- 5.682128 2 3 tcp 1040 ------- 1 0.0 3.0 18 33
r 5.68296 1 2 tcp 1040 ------- 1 0.0 3.0 19 34
+ 5.68296 2 3 tcp 1040 ------- 1 0.0 3.0 19 34
- 5.68296 2 3 tcp 1040 ------- 1 0.0 3.0 19 34
r 5.683792 1 2 tcp 1040 ------- 1 0.0 3.0 20 35
+ 5.683792 2 3 tcp 1040 ------- 1 0.0 3.0 20 35
- 5.683792 2 3 tcp 1040 ------- 1 0.0 3.0 20 35
r 5.684624 1 2 tcp 1040 ------- 1 0.0 3.0 21 36
+ 5.684624 2 3 tcp 1040 ------- 1 0.0 3.0 21 36
- 5.684624 2 3 tcp 1040 ------- 1 0.0 3.0 21 36
r 5.685456 1 2 tcp 1040 ------- 1 0.0 3.0 22 37
+ 5.685456 2 3 tcp 1040 ------- 1 0.0 3.0 22 37
- 5.685456 2 3 tcp 1040 ------- 1 0.0 3.0 22 37
r 5.686288 1 2 tcp 1040 ------- 1 0.0 3.0 23 38
+ 5.686288 2 3 tcp 1040 ------- 1 0.0 3.0 23 38
- 5.686288 2 3 tcp 1040 ------- 1 0.0 3.0 23 38
r 5.68712 1 2 tcp 1040 ------- 1 0.0 3.0 24 39
+ 5.68712 2 3 tcp 1040 ------- 1 0.0 3.0 24 39
- 5.68712 2 3 tcp 1040 ------- 1 0.0 3.0 24 39
r 5.687952 1 2 tcp 1040 ------- 1 0.0 3.0 25 40
+ 5.687952 2 3 tcp 1040 ------- 1 0.0 3.0 25 40
- 5.687952 2 3 tcp 1040 ------- 1 0.0 3.0 25 40
r 5.688784 1 2 tcp 1040 ------- 1 0.0 3.0 26 41
+ 5.688784 2 3 tcp 1040 ------- 1 0.0 3.0 26 41
- 5.688784 2 3 tcp 1040 ------- 1 0.0 3.0 26 41
r 5.689616 1 2 tcp 1040 ------- 1 0.0 3.0 27 42
+ 5.689616 2 3 tcp 1040 ------- 1 0.0 3.0 27 42
- 5.689616 2 3 tcp 1040 ------- 1 0.0 3.0 27 42
r 5.690448 1 2 tcp 1040 ------- 1 0.0 3.0 28 43
+ 5.690448 2 3 tcp 1040 ------- 1 0.0 3.0 28 43
- 5.690448 2 3 tcp 1040 ------- 1 0.0 3.0 28 43
r 5.690464 2 3 tcp 1040 ------- 1 0.0 3.0 15 30
+ 5.690464 3 2 ack 40 ------- 1 3.0 0.0 15 46
- 5.690464 3 2 ack 40 ------- 1 3.0 0.0 15 46
r 5.69128 1 2 tcp 1040 ------- 1 0.0 3.0 29 44
+ 5.69128 2 3 tcp 1040 ------- 1 0.0 3.0 29 44
- 5.69128 2 3 tcp 1040 ------- 1 0.0 3.0 29 44
r 5.691296 2 3 tcp 1040 ------- 1 0.0 3.0 16 31
+ 5.691296 3 2 ack 40 ------- 1 3.0 0.0 16 47
- 5.691296 3 2 ack 40 ------- 1 3.0 0.0 16 47
r 5.692112 1 2 tcp 1040 ------- 1 0.0 3.0 30 45
+ 5.692112 2 3 tcp 1040 ------- 1 0.0 3.0 30 45
- 5.692112 2 3 tcp 1040 ------- 1 0.0 3.0 30 45
r 5.692128 2 3 tcp 1040 ------- 1 0.0 3.0 17 32
+ 5.692128 3 2 ack 40 ------- 1 3.0 0.0 17 48
- 5.692128 3 2 ack 40 ------- 1 3.0 0.0 17 48
r 5.69296 2 3 tcp 1040 ------- 1 0.0 3.0 18 33
+ 5.69296 3 2 ack 40 ------- 1 3.0 0.0 18 49
- 5.69296 3 2 ack 40 ------- 1 3.0 0.0 18 49
r 5.693792 2 3 tcp 1040 ------- 1 0.0 3.0 19 34
+ 5.693792 3 2 ack 40 ------- 1 3.0 0.0 19 50
- 5.693792 3 2 ack 40 ------- 1 3.0 0.0 19 50
r 5.694624 2 3 tcp 1040 ------- 1 0.0 3.0 20 35
+ 5.694624 3 2 ack 40 ------- 1 3.0 0.0 20 51
- 5.694624 3 2 ack 40 ------- 1 3.0 0.0 20 51
r 5.695456 2 3 tcp 1040 ------- 1 0.0 3.0 21 36
+ 5.695456 3 2 ack 40 ------- 1 3.0 0.0 21 52
- 5.695456 3 2 ack 40 ------- 1 3.0 0.0 21 52
r 5.696288 2 3 tcp 1040 ------- 1 0.0 3.0 22 37
+ 5.696288 3 2 ack 40 ------- 1 3.0 0.0 22 53
- 5.696288 3 2 ack 40 ------- 1 3.0 0.0 22 53
r 5.69712 2 3 tcp 1040 ------- 1 0.0 3.0 23 38
+ 5.69712 3 2 ack 40 ------- 1 3.0 0.0 23 54
- 5.69712 3 2 ack 40 ------- 1 3.0 0.0 23 54
r 5.697952 2 3 tcp 1040 ------- 1 0.0 3.0 24 39
+ 5.697952 3 2 ack 40 ------- 1 3.0 0.0 24 55
- 5.697952 3 2 ack 40 ------- 1 3.0 0.0 24 55
r 5.698784 2 3 tcp 1040 ------- 1 0.0 3.0 25 40
+ 5.698784 3 2 ack 40 ------- 1 3.0 0.0 25 56
- 5.698784 3 2 ack 40 ------- 1 3.0 0.0 25 56
r 5.699616 2 3 tcp 1040 ------- 1 0.0 3.0 26 41
+ 5.699616 3 2 ack 40 ------- 1 3.0 0.0 26 57
- 5.699616 3 2 ack 40 ------- 1 3.0 0.0 26 57
r 5.700448 2 3 tcp 1040 ------- 1 0.0 3.0 27 42
+ 5.700448 3 2 ack 40 ------- 1 3.0 0.0 27 58
- 5.700448 3 2 ack 40 ------- 1 3.0 0.0 27 58
r 5.700496 3 2 ack 40 ------- 1 3.0 0.0 15 46
+ 5.700496 2 1 ack 40 ------- 1 3.0 0.0 15 46
- 5.700496 2 1 ack 40 ------- 1 3.0 0.0 15 46
r 5.70128 2 3 tcp 1040 ------- 1 0.0 3.0 28 43
+ 5.70128 3 2 ack 40 ------- 1 3.0 0.0 28 59
- 5.70128 3 2 ack 40 ------- 1 3.0 0.0 28 59
r 5.701328 3 2 ack 40 ------- 1 3.0 0.0 16 47
+ 5.701328 2 1 ack 40 ------- 1 3.0 0.0 16 47
- 5.701328 2 1 ack 40 ------- 1 3.0 0.0 16 47
r 5.702112 2 3 tcp 1040 ------- 1 0.0 3.0 29 44
+ 5.702112 3 2 ack 40 ------- 1 3.0 0.0 29 60
- 5.702112 3 2 ack 40 ------- 1 3.0 0.0 29 60
r 5.70216 3 2 ack 40 ------- 1 3.0 0.0 17 48
+ 5.70216 2 1 ack 40 ------- 1 3.0 0.0 17 48
- 5.70216 2 1 ack 40 ------- 1 3.0 0.0 17 48
r 5.702944 2 3 tcp 1040 ------- 1 0.0 3.0 30 45
+ 5.702944 3 2 ack 40 ------- 1 3.0 0.0 30 61
- 5.702944 3 2 ack 40 ------- 1 3.0 0.0 30 61
r 5.702992 3 2 ack 40 ------- 1 3.0 0.0 18 49
+ 5.702992 2 1 ack 40 ------- 1 3.0 0.0 18 49
- 5.702992 2 1 ack 40 ------- 1 3.0 0.0 18 49
r 5.703824 3 2 ack 40 ------- 1 3.0 0.0 19 50
+ 5.703824 2 1 ack 40 ------- 1 3.0 0.0 19 50
- 5.703824 2 1 ack 40 ------- 1 3.0 0.0 19 50
r 5.704656 3 2 ack 40 ------- 1 3.0 0.0 20 51
+ 5.704656 2 1 ack 40 ------- 1 3.0 0.0 20 51
- 5.704656 2 1 ack 40 ------- 1 3.0 0.0 20 51
r 5.705488 3 2 ack 40 ------- 1 3.0 0.0 21 52
+ 5.705488 2 1 ack 40 ------- 1 3.0 0.0 21 52
- 5.705488 2 1 ack 40 ------- 1 3.0 0.0 21 52
r 5.70632 3 2 ack 40 ------- 1 3.0 0.0 22 53
+ 5.70632 2 1 ack 40 ------- 1 3.0 0.0 22 53
- 5.70632 2 1 ack 40 ------- 1 3.0 0.0 22 53
r 5.707152 3 2 ack 40 ------- 1 3.0 0.0 23 54
+ 5.707152 2 1 ack 40 ------- 1 3.0 0.0 23 54
- 5.707152 2 1 ack 40 ------- 1 3.0 0.0 23 54
r 5.707984 3 2 ack 40 ------- 1 3.0 0.0 24 55
+ 5.707984 2 1 ack 40 ------- 1 3.0 0.0 24 55
- 5.707984 2 1 ack 40 ------- 1 3.0 0.0 24 55
r 5.708816 3 2 ack 40 ------- 1 3.0 0.0 25 56
+ 5.708816 2 1 ack 40 ------- 1 3.0 0.0 25 56
- 5.708816 2 1 ack 40 ------- 1 3.0 0.0 25 56
r 5.709648 3 2 ack 40 ------- 1 3.0 0.0 26 57
+ 5.709648 2 1 ack 40 ------- 1 3.0 0.0 26 57
- 5.709648 2 1 ack 40 ------- 1 3.0 0.0 26 57
r 5.71048 3 2 ack 40 ------- 1 3.0 0.0 27 58
+ 5.71048 2 1 ack 40 ------- 1 3.0 0.0 27 58
- 5.71048 2 1 ack 40 ------- 1 3.0 0.0 27 58
r 5.711312 3 2 ack 40 ------- 1 3.0 0.0 28 59
+ 5.711312 2 1 ack 40 ------- 1 3.0 0.0 28 59
- 5.711312 2 1 ack 40 ------- 1 3.0 0.0 28 59
r 5.712144 3 2 ack 40 ------- 1 3.0 0.0 29 60
+ 5.712144 2 1 ack 40 ------- 1 3.0 0.0 29 60
- 5.712144 2 1 ack 40 ------- 1 3.0 0.0 29 60
r 5.712976 3 2 ack 40 ------- 1 3.0 0.0 30 61
+ 5.712976 2 1 ack 40 ------- 1 3.0 0.0 30 61
- 5.712976 2 1 ack 40 ------- 1 3.0 0.0 30 61
r 6.200528 2 1 ack 40 ------- 1 3.0 0.0 15 46
+ 6.200528 1 0 ack 40 ------- 1 3.0 0.0 15 46
- 6.200528 1 0 ack 40 ------- 1 3.0 0.0 15 46
r 6.20136 2 1 ack 40 ------- 1 3.0 0.0 16 47
+ 6.20136 1 0 ack 40 ------- 1 3.0 0.0 16 47
- 6.20136 1 0 ack 40 ------- 1 3.0 0.0 16 47
r 6.202192 2 1 ack 40 ------- 1 3.0 0.0 17 48
+ 6.202192 1 0 ack 40 ------- 1 3.0 0.0 17 48
- 6.202192 1 0 ack 40 ------- 1 3.0 0.0 17 48
r 6.203024 2 1 ack 40 ------- 1 3.0 0.0 18 49
+ 6.203024 1 0 ack 40 ------- 1 3.0 0.0 18 49
- 6.203024 1 0 ack 40 ------- 1 3.0 0.0 18 49
r 6.203856 2 1 ack 40 ------- 1 3.0 0.0 19 50
+ 6.203856 1 0 ack 40 ------- 1 3.0 0.0 19 50
- 6.203856 1 0 ack 40 ------- 1 3.0 0.0 19 50
r 6.204688 2 1 ack 40 ------- 1 3.0 0.0 20 51
+ 6.204688 1 0 ack 40 ------- 1 3.0 0.0 20 51
- 6.204688 1 0 ack 40 ------- 1 3.0 0.0 20 51
r 6.20552 2 1 ack 40 ------- 1 3.0 0.0 21 52
+ 6.20552 1 0 ack 40 ------- 1 3.0 0.0 21 52
- 6.20552 1 0 ack 40 ------- 1 3.0 0.0 21 52
r 6.206352 2 1 ack 40 ------- 1 3.0 0.0 22 53
+ 6.206352 1 0 ack 40 ------- 1 3.0 0.0 22 53
- 6.206352 1 0 ack 40 ------- 1 3.0 0.0 22 53
r 6.207184 2 1 ack 40 ------- 1 3.0 0.0 23 54
+ 6.207184 1 0 ack 40 ------- 1 3.0 0.0 23 54
- 6.207184 1 0 ack 40 ------- 1 3.0 0.0 23 54
r 6.208016 2 1 ack 40 ------- 1 3.0 0.0 24 55
+ 6.208016 1 0 ack 40 ------- 1 3.0 0.0 24 55
- 6.208016 1 0 ack 40 ------- 1 3.0 0.0 24 55
r 6.208848 2 1 ack 40 ------- 1 3.0 0.0 25 56
+ 6.208848 1 0 ack 40 ------- 1 3.0 0.0 25 56
- 6.208848 1 0 ack 40 ------- 1 3.0 0.0 25 56
r 6.20968 2 1 ack 40 ------- 1 3.0 0.0 26 57
+ 6.20968 1 0 ack 40 ------- 1 3.0 0.0 26 57
- 6.20968 1 0 ack 40 ------- 1 3.0 0.0 26 57
r 6.210512 2 1 ack 40 ------- 1 3.0 0.0 27 58
+ 6.210512 1 0 ack 40 ------- 1 3.0 0.0 27 58
- 6.210512 1 0 ack 40 ------- 1 3.0 0.0 27 58
r 6.21056 1 0 ack 40 ------- 1 3.0 0.0 15 46
+ 6.21056 0 1 tcp 1040 ------- 1 0.0 3.0 31 62
- 6.21056 0 1 tcp 1040 ------- 1 0.0 3.0 31 62
+ 6.21056 0 1 tcp 1040 ------- 1 0.0 3.0 32 63
r 6.211344 2 1 ack 40 ------- 1 3.0 0.0 28 59
+ 6.211344 1 0 ack 40 ------- 1 3.0 0.0 28 59
- 6.211344 1 0 ack 40 ------- 1 3.0 0.0 28 59
r 6.211392 1 0 ack 40 ------- 1 3.0 0.0 16 47
+ 6.211392 0 1 tcp 1040 ------- 1 0.0 3.0 33 64
+ 6.211392 0 1 tcp 1040 ------- 1 0.0 3.0 34 65
- 6.211392 0 1 tcp 1040 ------- 1 0.0 3.0 32 63
r 6.212176 2 1 ack 40 ------- 1 3.0 0.0 29 60
+ 6.212176 1 0 ack 40 ------- 1 3.0 0.0 29 60
- 6.212176 1 0 ack 40 ------- 1 3.0 0.0 29 60
r 6.212224 1 0 ack 40 ------- 1 3.0 0.0 17 48
+ 6.212224 0 1 tcp 1040 ------- 1 0.0 3.0 35 66
+ 6.212224 0 1 tcp 1040 ------- 1 0.0 3.0 36 67
- 6.212224 0 1 tcp 1040 ------- 1 0.0 3.0 33 64
r 6.213008 2 1 ack 40 ------- 1 3.0 0.0 30 61
+ 6.213008 1 0 ack 40 ------- 1 3.0 0.0 30 61
- 6.213008 1 0 ack 40 ------- 1 3.0 0.0 30 61
r 6.213056 1 0 ack 40 ------- 1 3.0 0.0 18 49
+ 6.213056 0 1 tcp 1040 ------- 1 0.0 3.0 37 68
+ 6.213056 0 1 tcp 1040 ------- 1 0.0 3.0 38 69
- 6.213056 0 1 tcp 1040 ------- 1 0.0 3.0 34 65
r 6.213888 1 0 ack 40 ------- 1 3.0 0.0 19 50
+ 6.213888 0 1 tcp 1040 ------- 1 0.0 3.0 39 70
- 6.213888 0 1 tcp 1040 ------- 1 0.0 3.0 35 66
r 6.21472 1 0 ack 40 ------- 1 3.0 0.0 20 51
+ 6.21472 0 1 tcp 1040 ------- 1 0.0 3.0 40 71
- 6.21472 0 1 tcp 1040 ------- 1 0.0 3.0 36 67
r 6.215552 1 0 ack 40 ------- 1 3.0 0.0 21 52
+ 6.215552 0 1 tcp 1040 ------- 1 0.0 3.0 41 72
- 6.215552 0 1 tcp 1040 ------- 1 0.0 3.0 37 68
r 6.216384 1 0 ack 40 ------- 1 3.0 0.0 22 53
+ 6.216384 0 1 tcp 1040 ------- 1 0.0 3.0 42 73
- 6.216384 0 1 tcp 1040 ------- 1 0.0 3.0 38 69
r 6.217216 1 0 ack 40 ------- 1 3.0 0.0 23 54
+ 6.217216 0 1 tcp 1040 ------- 1 0.0 3.0 43 74
- 6.217216 0 1 tcp 1040 ------- 1 0.0 3.0 39 70
r 6.218048 1 0 ack 40 ------- 1 3.0 0.0 24 55
+ 6.218048 0 1 tcp 1040 ------- 1 0.0 3.0 44 75
- 6.218048 0 1 tcp 1040 ------- 1 0.0 3.0 40 71
r 6.21888 1 0 ack 40 ------- 1 3.0 0.0 25 56
+ 6.21888 0 1 tcp 1040 ------- 1 0.0 3.0 45 76
- 6.21888 0 1 tcp 1040 ------- 1 0.0 3.0 41 72
r 6.219712 1 0 ack 40 ------- 1 3.0 0.0 26 57
+ 6.219712 0 1 tcp 1040 ------- 1 0.0 3.0 46 77
- 6.219712 0 1 tcp 1040 ------- 1 0.0 3.0 42 73
r 6.220544 1 0 ack 40 ------- 1 3.0 0.0 27 58
+ 6.220544 0 1 tcp 1040 ------- 1 0.0 3.0 47 78
- 6.220544 0 1 tcp 1040 ------- 1 0.0 3.0 43 74
r 6.221376 1 0 ack 40 ------- 1 3.0 0.0 28 59
+ 6.221376 0 1 tcp 1040 ------- 1 0.0 3.0 48 79
- 6.221376 0 1 tcp 1040 ------- 1 0.0 3.0 44 75
r 6.221392 0 1 tcp 1040 ------- 1 0.0 3.0 31 62
+ 6.221392 1 2 tcp 1040 ------- 1 0.0 3.0 31 62
- 6.221392 1 2 tcp 1040 ------- 1 0.0 3.0 31 62
r 6.222208 1 0 ack 40 ------- 1 3.0 0.0 29 60
+ 6.222208 0 1 tcp 1040 ------- 1 0.0 3.0 49 80
- 6.222208 0 1 tcp 1040 ------- 1 0.0 3.0 45 76
r 6.222224 0 1 tcp 1040 ------- 1 0.0 3.0 32 63
+ 6.222224 1 2 tcp 1040 ------- 1 0.0 3.0 32 63
- 6.222224 1 2 tcp 1040 ------- 1 0.0 3.0 32 63
r 6.22304 1 0 ack 40 ------- 1 3.0 0.0 30 61
+ 6.22304 0 1 tcp 1040 ------- 1 0.0 3.0 50 81
- 6.22304 0 1 tcp 1040 ------- 1 0.0 3.0 46 77
r 6.223056 0 1 tcp 1040 ------- 1 0.0 3.0 33 64
+ 6.223056 1 2 tcp 1040 ------- 1 0.0 3.0 33 64
- 6.223056 1 2 tcp 1040 ------- 1 0.0 3.0 33 64
- 6.223872 0 1 tcp 1040 ------- 1 0.0 3.0 47 78
r 6.223888 0 1 tcp 1040 ------- 1 0.0 3.0 34 65
+ 6.223888 1 2 tcp 1040 ------- 1 0.0 3.0 34 65
- 6.223888 1 2 tcp 1040 ------- 1 0.0 3.0 34 65
- 6.224704 0 1 tcp 1040 ------- 1 0.0 3.0 48 79
r 6.22472 0 1 tcp 1040 ------- 1 0.0 3.0 35 66
+ 6.22472 1 2 tcp 1040 ------- 1 0.0 3.0 35 66
- 6.22472 1 2 tcp 1040 ------- 1 0.0 3.0 35 66
- 6.225536 0 1 tcp 1040 ------- 1 0.0 3.0 49 80
r 6.225552 0 1 tcp 1040 ------- 1 0.0 3.0 36 67
+ 6.225552 1 2 tcp 1040 ------- 1 0.0 3.0 36 67
- 6.225552 1 2 tcp 1040 ------- 1 0.0 3.0 36 67
- 6.226368 0 1 tcp 1040 ------- 1 0.0 3.0 50 81
r 6.226384 0 1 tcp 1040 ------- 1 0.0 3.0 37 68
+ 6.226384 1 2 tcp 1040 ------- 1 0.0 3.0 37 68
- 6.226384 1 2 tcp 1040 ------- 1 0.0 3.0 37 68
r 6.227216 0 1 tcp 1040 ------- 1 0.0 3.0 38 69
+ 6.227216 1 2 tcp 1040 ------- 1 0.0 3.0 38 69
- 6.227216 1 2 tcp 1040 ------- 1 0.0 3.0 38 69
r 6.228048 0 1 tcp 1040 ------- 1 0.0 3.0 39 70
+ 6.228048 1 2 tcp 1040 ------- 1 0.0 3.0 39 70
- 6.228048 1 2 tcp 1040 ------- 1 0.0 3.0 39 70
r 6.22888 0 1 tcp 1040 ------- 1 0.0 3.0 40 71
+ 6.22888 1 2 tcp 1040 ------- 1 0.0 3.0 40 71
- 6.22888 1 2 tcp 1040 ------- 1 0.0 3.0 40 71
r 6.229712 0 1 tcp 1040 ------- 1 0.0 3.0 41 72
+ 6.229712 1 2 tcp 1040 ------- 1 0.0 3.0 41 72
- 6.229712 1 2 tcp 1040 ------- 1 0.0 3.0 41 72
r 6.230544 0 1 tcp 1040 ------- 1 0.0 3.0 42 73
+ 6.230544 1 2 tcp 1040 ------- 1 0.0 3.0 42 73
- 6.230544 1 2 tcp 1040 ------- 1 0.0 3.0 42 73
r 6.231376 0 1 tcp 1040 ------- 1 0.0 3.0 43 74
+ 6.231376 1 2 tcp 1040 ------- 1 0.0 3.0 43 74
- 6.231376 1 2 tcp 1040 ------- 1 0.0 3.0 43 74
r 6.232208 0 1 tcp 1040 ------- 1 0.0 3.0 44 75
+ 6.232208 1 2 tcp 1040 ------- 1 0.0 3.0 44 75
- 6.232208 1 2 tcp 1040 ------- 1 0.0 3.0 44 75
r 6.23304 0 1 tcp 1040 ------- 1 0.0 3.0 45 76
+ 6.23304 1 2 tcp 1040 ------- 1 0.0 3.0 45 76
- 6.23304 1 2 tcp 1040 ------- 1 0.0 3.0 45 76
r 6.233872 0 1 tcp 1040 ------- 1 0.0 3.0 46 77
+ 6.233872 1 2 tcp 1040 ------- 1 0.0 3.0 46 77
- 6.233872 1 2 tcp 1040 ------- 1 0.0 3.0 46 77