+ 14.96 0 1 cbr 500 ------- 1 0.0 2.0 2792 2792
- 14.96 0 1 cbr 500 ------- 1 0.0 2.0 2792 2792
r 14.963 1 2 cbr 500 ------- 1 0.0 2.0 2787 2787
r 14.964 0 1 cbr 500 ------- 1 0.0 2.0 2790 2790
+ 14.964 1 2 cbr 500 ------- 1 0.0 2.0 2790 2790
- 14.964 1 2 cbr 500 ------- 1 0.0 2.0 2790 2790
+ 14.965 0 1 cbr 500 ------- 1 0.0 2.0 2793 2793
- 14.965 0 1 cbr 500 ------- 1 0.0 2.0 2793 2793
r 14.968 1 2 cbr 500 ------- 1 0.0 2.0 2788 2788
r 14.969 0 1 cbr 500 ------- 1 0.0 2.0 2791 2791
+ 14.969 1 2 cbr 500 ------- 1 0.0 2.0 2791 2791
- 14.969 1 2 cbr 500 ------- 1 0.0 2.0 2791 2791
+ 14.97 0 1 cbr 500 ------- 1 0.0 2.0 2794 2794
- 14.97 0 1 cbr 500 ------- 1 0.0 2.0 2794 2794
r 14.973 1 2 cbr 500 ------- 1 0.0 2.0 2789 2789
r 14.974 0 1 cbr 500 ------- 1 0.0 2.0 2792 2792
+ 14.974 1 2 cbr 500 ------- 1 0.0 2.0 2792 2792
- 14.974 1 2 cbr 500 ------- 1 0.0 2.0 2792 2792
+ 14.975 0 1 cbr 500 ------- 1 0.0 2.0 2795 2795
- 14.975 0 1 cbr 500 ------- 1 0.0 2.0 2795 2795
r 14.978 1 2 cbr 500 ------- 1 0.0 2.0 2790 2790
r 14.979 0 1 cbr 500 ------- 1 0.0 2.0 2793 2793
+ 14.979 1 2 cbr 500 ------- 1 0.0 2.0 2793 2793
- 14.979 1 2 cbr 500 ------- 1 0.0 2.0 2793 2793
+ 14.98 0 1 cbr 500 ------- 1 0.0 2.0 2796 2796
- 14.98 0 1 cbr 500 ------- 1 0.0 2.0 2796 2796
r 14.983 1 2 cbr 500 ------- 1 0.0 2.0 2791 2791
r 14.984 0 1 cbr 500 ------- 1 0.0 2.0 2794 2794
+ 14.984 1 2 cbr 500 ------- 1 0.0 2.0 2794 2794
- 14.984 1 2 cbr 500 ------- 1 0.0 2.0 2794 2794
+ 14.985 0 1 cbr 500 ------- 1 0.0 2.0 2797 2797
- 14.985 0 1 cbr 500 ------- 1 0.0 2.0 2797 2797
r 14.988 1 2 cbr 500 ------- 1 0.0 2.0 2792 2792
r 14.989 0 1 cbr 500 ------- 1 0.0 2.0 2795 2795
+ 14.989 1 2 cbr 500 ------- 1 0.0 2.0 2795 2795
- 14.989 1 2 cbr 500 ------- 1 0.0 2.0 2795 2795
+ 14.99 0 1 cbr 500 ------- 1 0.0 2.0 2798 2798
- 14.99 0 1 cbr 500 ------- 1 0.0 2.0 2798 2798
r 14.993 1 2 cbr 500 ------- 1 0.0 2.0 2793 2793
r 14.994 0 1 cbr 500 ------- 1 0.0 2.0 2796 2796
+ 14.994 1 2 cbr 500 ------- 1 0.0 2.0 2796 2796
- 14.994 1 2 cbr 500 ------- 1 0.0 2.0 2796 2796
+ 14.995 0 1 cbr 500 ------- 1 0.0 2.0 2799 2799
- 14.995 0 1 cbr 500 ------- 1 0.0 2.0 2799 2799
r 14.998 1 2 cbr 500 ------- 1 0.0 2.0 2794 2794
r 14.999 0 1 cbr 500 ------- 1 0.0 2.0 2797 2797
+ 14.999 1 2 cbr 500 ------- 1 0.0 2.0 2797 2797
- 14.999 1 2 cbr 500 ------- 1 0.0 2.0 2797 2797
r 15.003 1 2 cbr 500 ------- 1 0.0 2.0 2795 2795
r 15.004 0 1 cbr 500 ------- 1 0.0 2.0 2798 2798
+ 15.004 1 2 cbr 500 ------- 1 0.0 2.0 2798 2798
- 15.004 1 2 cbr 500 ------- 1 0.0 2.0 2798 2798
r 15.008 1 2 cbr 500 ------- 1 0.0 2.0 2796 2796
r 15.009 0 1 cbr 500 ------- 1 0.0 2.0 2799 2799
+ 15.009 1 2 cbr 500 ------- 1 0.0 2.0 2799 2799
- 15.009 1 2 cbr 500 ------- 1 0.0 2.0 2799 2799
r 15.013 1 2 cbr 500 ------- 1 0.0 2.0 2797 2797
r 15.018 1 2 cbr 500 ------- 1 0.0 2.0 2798 2798
r 15.023 1 2 cbr 500 ------- 1 0.0 2.0 2799 2799
