+ 1 0 1 cbr 500 ------- 1 0.0 2.0 0 0
- 1 0 1 cbr 500 ------- 1 0.0 2.0 0 0
+ 1.005 0 1 cbr 500 ------- 1 0.0 2.0 1 1
- 1.005 0 1 cbr 500 ------- 1 0.0 2.0 1 1
+ 1.01 0 1 cbr 500 ------- 1 0.0 2.0 2 2
- 1.01 0 1 cbr 500 ------- 1 0.0 2.0 2 2
r 1.014 0 1 cbr 500 ------- 1 0.0 2.0 0 0
+ 1.014 1 2 cbr 500 ------- 1 0.0 2.0 0 0
- 1.014 1 2 cbr 500 ------- 1 0.0 2.0 0 0
+ 1.015 0 1 cbr 500 ------- 1 0.0 2.0 3 3
- 1.015 0 1 cbr 500 ------- 1 0.0 2.0 3 3
r 1.019 0 1 cbr 500 ------- 1 0.0 2.0 1 1
+ 1.019 1 2 cbr 500 ------- 1 0.0 2.0 1 1
+ 1.02 0 1 cbr 500 ------- 1 0.0 2.0 4 4
- 1.02 0 1 cbr 500 ------- 1 0.0 2.0 4 4
- 1.022 1 2 cbr 500 ------- 1 0.0 2.0 1 1
r 1.024 0 1 cbr 500 ------- 1 0.0 2.0 2 2
+ 1.024 1 2 cbr 500 ------- 1 0.0 2.0 2 2
+ 1.025 0 1 cbr 500 ------- 1 0.0 2.0 5 5
- 1.025 0 1 cbr 500 ------- 1 0.0 2.0 5 5
r 1.029 0 1 cbr 500 ------- 1 0.0 2.0 3 3
+ 1.029 1 2 cbr 500 ------- 1 0.0 2.0 3 3
+ 1.03 0 1 cbr 500 ------- 1 0.0 2.0 6 6
- 1.03 0 1 cbr 500 ------- 1 0.0 2.0 6 6
- 1.03 1 2 cbr 500 ------- 1 0.0 2.0 2 2
r 1.032 1 2 cbr 500 ------- 1 0.0 2.0 0 0
r 1.034 0 1 cbr 500 ------- 1 0.0 2.0 4 4
+ 1.034 1 2 cbr 500 ------- 1 0.0 2.0 4 4
+ 1.035 0 1 cbr 500 ------- 1 0.0 2.0 7 7
- 1.035 0 1 cbr 500 ------- 1 0.0 2.0 7 7
- 1.038 1 2 cbr 500 ------- 1 0.0 2.0 3 3
r 1.039 0 1 cbr 500 ------- 1 0.0 2.0 5 5
+ 1.039 1 2 cbr 500 ------- 1 0.0 2.0 5 5
+ 1.04 0 1 cbr 500 ------- 1 0.0 2.0 8 8
- 1.04 0 1 cbr 500 ------- 1 0.0 2.0 8 8
r 1.04 1 2 cbr 500 ------- 1 0.0 2.0 1 1
r 1.044 0 1 cbr 500 ------- 1 0.0 2.0 6 6
+ 1.044 1 2 cbr 500 ------- 1 0.0 2.0 6 6
+ 1.045 0 1 cbr 500 ------- 1 0.0 2.0 9 9
- 1.045 0 1 cbr 500 ------- 1 0.0 2.0 9 9
- 1.046 1 2 cbr 500 ------- 1 0.0 2.0 4 4
r 1.048 1 2 cbr 500 ------- 1 0.0 2.0 2 2
r 1.049 0 1 cbr 500 ------- 1 0.0 2.0 7 7
+ 1.049 1 2 cbr 500 ------- 1 0.0 2.0 7 7
+ 1.05 0 1 cbr 500 ------- 1 0.0 2.0 10 10
- 1.05 0 1 cbr 500 ------- 1 0.0 2.0 10 10
r 1.054 0 1 cbr 500 ------- 1 0.0 2.0 8 8
+ 1.054 1 2 cbr 500 ------- 1 0.0 2.0 8 8
- 1.054 1 2 cbr 500 ------- 1 0.0 2.0 5 5
+ 1.055 0 1 cbr 500 ------- 1 0.0 2.0 11 11
- 1.055 0 1 cbr 500 ------- 1 0.0 2.0 11 11
r 1.056 1 2 cbr 500 ------- 1 0.0 2.0 3 3
r 1.059 0 1 cbr 500 ------- 1 0.0 2.0 9 9
+ 1.059 1 2 cbr 500 ------- 1 0.0 2.0 9 9
+ 1.06 0 1 cbr 500 ------- 1 0.0 2.0 12 12
- 1.06 0 1 cbr 500 ------- 1 0.0 2.0 12 12
- 1.062 1 2 cbr 500 ------- 1 0.0 2.0 6 6
r 1.064 0 1 cbr 500 ------- 1 0.0 2.0 10 10
+ 1.064 1 2 cbr 500 ------- 1 0.0 2.0 10 10
r 1.064 1 2 cbr 500 ------- 1 0.0 2.0 4 4
+ 1.065 0 1 cbr 500 ------- 1 0.0 2.0 13 13
- 1.065 0 1 cbr 500 ------- 1 0.0 2.0 13 13
r 1.069 0 1 cbr 500 ------- 1 0.0 2.0 11 11
+ 1.069 1 2 cbr 500 ------- 1 0.0 2.0 11 11
+ 1.07 0 1 cbr 500 ------- 1 0.0 2.0 14 14
- 1.07 0 1 cbr 500 ------- 1 0.0 2.0 14 14
- 1.07 1 2 cbr 500 ------- 1 0.0 2.0 7 7
r 1.072 1 2 cbr 500 ------- 1 0.0 2.0 5 5
r 1.074 0 1 cbr 500 ------- 1 0.0 2.0 12 12
+ 1.074 1 2 cbr 500 ------- 1 0.0 2.0 12 12
+ 1.075 0 1 cbr 500 ------- 1 0.0 2.0 15 15
- 1.075 0 1 cbr 500 ------- 1 0.0 2.0 15 15
- 1.078 1 2 cbr 500 ------- 1 0.0 2.0 8 8
r 1.079 0 1 cbr 500 ------- 1 0.0 2.0 13 13
+ 1.079 1 2 cbr 500 ------- 1 0.0 2.0 13 13
+ 1.08 0 1 cbr 500 ------- 1 0.0 2.0 16 16
- 1.08 0 1 cbr 500 ------- 1 0.0 2.0 16 16
r 1.08 1 2 cbr 500 ------- 1 0.0 2.0 6 6
r 1.084 0 1 cbr 500 ------- 1 0.0 2.0 14 14
+ 1.084 1 2 cbr 500 ------- 1 0.0 2.0 14 14
+ 1.085 0 1 cbr 500 ------- 1 0.0 2.0 17 17
- 1.085 0 1 cbr 500 ------- 1 0.0 2.0 17 17
- 1.086 1 2 cbr 500 ------- 1 0.0 2.0 9 9
r 1.088 1 2 cbr 500 ------- 1 0.0 2.0 7 7
r 1.089 0 1 cbr 500 ------- 1 0.0 2.0 15 15
+ 1.089 1 2 cbr 500 ------- 1 0.0 2.0 15 15
+ 1.09 0 1 cbr 500 ------- 1 0.0 2.0 18 18
- 1.09 0 1 cbr 500 ------- 1 0.0 2.0 18 18
r 1.094 0 1 cbr 500 ------- 1 0.0 2.0 16 16
+ 1.094 1 2 cbr 500 ------- 1 0.0 2.0 16 16
- 1.094 1 2 cbr 500 ------- 1 0.0 2.0 10 10
+ 1.095 0 1 cbr 500 ------- 1 0.0 2.0 19 19
- 1.095 0 1 cbr 500 ------- 1 0.0 2.0 19 19
r 1.096 1 2 cbr 500 ------- 1 0.0 2.0 8 8
r 1.099 0 1 cbr 500 ------- 1 0.0 2.0 17 17
+ 1.099 1 2 cbr 500 ------- 1 0.0 2.0 17 17
+ 1.1 0 1 cbr 500 ------- 1 0.0 2.0 20 20
- 1.1 0 1 cbr 500 ------- 1 0.0 2.0 20 20
- 1.102 1 2 cbr 500 ------- 1 0.0 2.0 11 11
r 1.104 0 1 cbr 500 ------- 1 0.0 2.0 18 18
+ 1.104 1 2 cbr 500 ------- 1 0.0 2.0 18 18
r 1.104 1 2 cbr 500 ------- 1 0.0 2.0 9 9
+ 1.105 0 1 cbr 500 ------- 1 0.0 2.0 21 21
- 1.105 0 1 cbr 500 ------- 1 0.0 2.0 21 21
r 1.109 0 1 cbr 500 ------- 1 0.0 2.0 19 19
+ 1.109 1 2 cbr 500 ------- 1 0.0 2.0 19 19
+ 1.11 0 1 cbr 500 ------- 1 0.0 2.0 22 22
- 1.11 0 1 cbr 500 ------- 1 0.0 2.0 22 22
- 1.11 1 2 cbr 500 ------- 1 0.0 2.0 12 12
r 1.112 1 2 cbr 500 ------- 1 0.0 2.0 10 10
r 1.114 0 1 cbr 500 ------- 1 0.0 2.0 20 20
+ 1.114 1 2 cbr 500 ------- 1 0.0 2.0 20 20
+ 1.115 0 1 cbr 500 ------- 1 0.0 2.0 23 23
- 1.115 0 1 cbr 500 ------- 1 0.0 2.0 23 23
- 1.118 1 2 cbr 500 ------- 1 0.0 2.0 13 13
r 1.119 0 1 cbr 500 ------- 1 0.0 2.0 21 21
+ 1.119 1 2 cbr 500 ------- 1 0.0 2.0 21 21
+ 1.12 0 1 cbr 500 ------- 1 0.0 2.0 24 24
- 1.12 0 1 cbr 500 ------- 1 0.0 2.0 24 24
r 1.12 1 2 cbr 500 ------- 1 0.0 2.0 11 11
r 1.124 0 1 cbr 500 ------- 1 0.0 2.0 22 22
+ 1.124 1 2 cbr 500 ------- 1 0.0 2.0 22 22
+ 1.125 0 1 cbr 500 ------- 1 0.0 2.0 25 25
- 1.125 0 1 cbr 500 ------- 1 0.0 2.0 25 25
- 1.126 1 2 cbr 500 ------- 1 0.0 2.0 14 14
r 1.128 1 2 cbr 500 ------- 1 0.0 2.0 12 12
r 1.129 0 1 cbr 500 ------- 1 0.0 2.0 23 23
+ 1.129 1 2 cbr 500 ------- 1 0.0 2.0 23 23
+ 1.13 0 1 cbr 500 ------- 1 0.0 2.0 26 26
- 1.13 0 1 cbr 500 ------- 1 0.0 2.0 26 26
r 1.134 0 1 cbr 500 ------- 1 0.0 2.0 24 24
+ 1.134 1 2 cbr 500 ------- 1 0.0 2.0 24 24
- 1.134 1 2 cbr 500 ------- 1 0.0 2.0 15 15
+ 1.135 0 1 cbr 500 ------- 1 0.0 2.0 27 27
- 1.135 0 1 cbr 500 ------- 1 0.0 2.0 27 27
r 1.136 1 2 cbr 500 ------- 1 0.0 2.0 13 13
r 1.139 0 1 cbr 500 ------- 1 0.0 2.0 25 25
+ 1.139 1 2 cbr 500 ------- 1 0.0 2.0 25 25
+ 1.14 0 1 cbr 500 ------- 1 0.0 2.0 28 28
- 1.14 0 1 cbr 500 ------- 1 0.0 2.0 28 28
- 1.142 1 2 cbr 500 ------- 1 0.0 2.0 16 16
r 1.144 0 1 cbr 500 ------- 1 0.0 2.0 26 26
+ 1.144 1 2 cbr 500 ------- 1 0.0 2.0 26 26
r 1.144 1 2 cbr 500 ------- 1 0.0 2.0 14 14
+ 1.145 0 1 cbr 500 ------- 1 0.0 2.0 29 29
- 1.145 0 1 cbr 500 ------- 1 0.0 2.0 29 29
r 1.149 0 1 cbr 500 ------- 1 0.0 2.0 27 27
+ 1.149 1 2 cbr 500 ------- 1 0.0 2.0 27 27
+ 1.15 0 1 cbr 500 ------- 1 0.0 2.0 30 30
- 1.15 0 1 cbr 500 ------- 1 0.0 2.0 30 30
- 1.15 1 2 cbr 500 ------- 1 0.0 2.0 17 17
r 1.152 1 2 cbr 500 ------- 1 0.0 2.0 15 15
r 1.154 0 1 cbr 500 ------- 1 0.0 2.0 28 28
+ 1.154 1 2 cbr 500 ------- 1 0.0 2.0 28 28
+ 1.155 0 1 cbr 500 ------- 1 0.0 2.0 31 31
- 1.155 0 1 cbr 500 ------- 1 0.0 2.0 31 31
- 1.158 1 2 cbr 500 ------- 1 0.0 2.0 18 18
r 1.159 0 1 cbr 500 ------- 1 0.0 2.0 29 29
+ 1.159 1 2 cbr 500 ------- 1 0.0 2.0 29 29
+ 1.16 0 1 cbr 500 ------- 1 0.0 2.0 32 32
- 1.16 0 1 cbr 500 ------- 1 0.0 2.0 32 32
r 1.16 1 2 cbr 500 ------- 1 0.0 2.0 16 16
r 1.164 0 1 cbr 500 ------- 1 0.0 2.0 30 30
+ 1.164 1 2 cbr 500 ------- 1 0.0 2.0 30 30
+ 1.165 0 1 cbr 500 ------- 1 0.0 2.0 33 33
- 1.165 0 1 cbr 500 ------- 1 0.0 2.0 33 33
- 1.166 1 2 cbr 500 ------- 1 0.0 2.0 19 19
r 1.168 1 2 cbr 500 ------- 1 0.0 2.0 17 17
r 1.169 0 1 cbr 500 ------- 1 0.0 2.0 31 31
+ 1.169 1 2 cbr 500 ------- 1 0.0 2.0 31 31
+ 1.17 0 1 cbr 500 ------- 1 0.0 2.0 34 34
- 1.17 0 1 cbr 500 ------- 1 0.0 2.0 34 34
r 1.174 0 1 cbr 500 ------- 1 0.0 2.0 32 32
+ 1.174 1 2 cbr 500 ------- 1 0.0 2.0 32 32
- 1.174 1 2 cbr 500 ------- 1 0.0 2.0 20 20
+ 1.175 0 1 cbr 500 ------- 1 0.0 2.0 35 35
- 1.175 0 1 cbr 500 ------- 1 0.0 2.0 35 35
r 1.176 1 2 cbr 500 ------- 1 0.0 2.0 18 18
r 1.179 0 1 cbr 500 ------- 1 0.0 2.0 33 33
+ 1.179 1 2 cbr 500 ------- 1 0.0 2.0 33 33
+ 1.18 0 1 cbr 500 ------- 1 0.0 2.0 36 36
- 1.18 0 1 cbr 500 ------- 1 0.0 2.0 36 36
- 1.182 1 2 cbr 500 ------- 1 0.0 2.0 21 21
r 1.184 0 1 cbr 500 ------- 1 0.0 2.0 34 34
+ 1.184 1 2 cbr 500 ------- 1 0.0 2.0 34 34
r 1.184 1 2 cbr 500 ------- 1 0.0 2.0 19 19
+ 1.185 0 1 cbr 500 ------- 1 0.0 2.0 37 37
- 1.185 0 1 cbr 500 ------- 1 0.0 2.0 37 37
r 1.189 0 1 cbr 500 ------- 1 0.0 2.0 35 35
+ 1.189 1 2 cbr 500 ------- 1 0.0 2.0 35 35
+ 1.19 0 1 cbr 500 ------- 1 0.0 2.0 38 38
- 1.19 0 1 cbr 500 ------- 1 0.0 2.0 38 38
- 1.19 1 2 cbr 500 ------- 1 0.0 2.0 22 22
r 1.192 1 2 cbr 500 ------- 1 0.0 2.0 20 20
r 1.194 0 1 cbr 500 ------- 1 0.0 2.0 36 36
+ 1.194 1 2 cbr 500 ------- 1 0.0 2.0 36 36
+ 1.195 0 1 cbr 500 ------- 1 0.0 2.0 39 39
- 1.195 0 1 cbr 500 ------- 1 0.0 2.0 39 39
- 1.198 1 2 cbr 500 ------- 1 0.0 2.0 23 23
r 1.199 0 1 cbr 500 ------- 1 0.0 2.0 37 37
+ 1.199 1 2 cbr 500 ------- 1 0.0 2.0 37 37
+ 1.2 0 1 cbr 500 ------- 1 0.0 2.0 40 40
- 1.2 0 1 cbr 500 ------- 1 0.0 2.0 40 40
r 1.2 1 2 cbr 500 ------- 1 0.0 2.0 21 21
r 1.204 0 1 cbr 500 ------- 1 0.0 2.0 38 38
+ 1.204 1 2 cbr 500 ------- 1 0.0 2.0 38 38
+ 1.205 0 1 cbr 500 ------- 1 0.0 2.0 41 41
- 1.205 0 1 cbr 500 ------- 1 0.0 2.0 41 41
- 1.206 1 2 cbr 500 ------- 1 0.0 2.0 24 24
r 1.208 1 2 cbr 500 ------- 1 0.0 2.0 22 22
r 1.209 0 1 cbr 500 ------- 1 0.0 2.0 39 39
+ 1.209 1 2 cbr 500 ------- 1 0.0 2.0 39 39
+ 1.21 0 1 cbr 500 ------- 1 0.0 2.0 42 42
- 1.21 0 1 cbr 500 ------- 1 0.0 2.0 42 42
r 1.214 0 1 cbr 500 ------- 1 0.0 2.0 40 40
+ 1.214 1 2 cbr 500 ------- 1 0.0 2.0 40 40
- 1.214 1 2 cbr 500 ------- 1 0.0 2.0 25 25
+ 1.215 0 1 cbr 500 ------- 1 0.0 2.0 43 43
- 1.215 0 1 cbr 500 ------- 1 0.0 2.0 43 43
r 1.216 1 2 cbr 500 ------- 1 0.0 2.0 23 23
r 1.219 0 1 cbr 500 ------- 1 0.0 2.0 41 41
+ 1.219 1 2 cbr 500 ------- 1 0.0 2.0 41 41
+ 1.22 0 1 cbr 500 ------- 1 0.0 2.0 44 44
- 1.22 0 1 cbr 500 ------- 1 0.0 2.0 44 44
- 1.222 1 2 cbr 500 ------- 1 0.0 2.0 26 26
r 1.224 0 1 cbr 500 ------- 1 0.0 2.0 42 42
+ 1.224 1 2 cbr 500 ------- 1 0.0 2.0 42 42
r 1.224 1 2 cbr 500 ------- 1 0.0 2.0 24 24
+ 1.225 0 1 cbr 500 ------- 1 0.0 2.0 45 45
- 1.225 0 1 cbr 500 ------- 1 0.0 2.0 45 45
r 1.229 0 1 cbr 500 ------- 1 0.0 2.0 43 43
+ 1.229 1 2 cbr 500 ------- 1 0.0 2.0 43 43
+ 1.23 0 1 cbr 500 ------- 1 0.0 2.0 46 46
- 1.23 0 1 cbr 500 ------- 1 0.0 2.0 46 46
- 1.23 1 2 cbr 500 ------- 1 0.0 2.0 27 27
r 1.232 1 2 cbr 500 ------- 1 0.0 2.0 25 25
r 1.234 0 1 cbr 500 ------- 1 0.0 2.0 44 44
+ 1.234 1 2 cbr 500 ------- 1 0.0 2.0 44 44
+ 1.235 0 1 cbr 500 ------- 1 0.0 2.0 47 47
- 1.235 0 1 cbr 500 ------- 1 0.0 2.0 47 47
- 1.238 1 2 cbr 500 ------- 1 0.0 2.0 28 28
r 1.239 0 1 cbr 500 ------- 1 0.0 2.0 45 45
+ 1.239 1 2 cbr 500 ------- 1 0.0 2.0 45 45
+ 1.24 0 1 cbr 500 ------- 1 0.0 2.0 48 48
- 1.24 0 1 cbr 500 ------- 1 0.0 2.0 48 48
r 1.24 1 2 cbr 500 ------- 1 0.0 2.0 26 26
r 1.244 0 1 cbr 500 ------- 1 0.0 2.0 46 46
+ 1.244 1 2 cbr 500 ------- 1 0.0 2.0 46 46
+ 1.245 0 1 cbr 500 ------- 1 0.0 2.0 49 49
- 1.245 0 1 cbr 500 ------- 1 0.0 2.0 49 49
- 1.246 1 2 cbr 500 ------- 1 0.0 2.0 29 29
r 1.248 1 2 cbr 500 ------- 1 0.0 2.0 27 27
r 1.249 0 1 cbr 500 ------- 1 0.0 2.0 47 47
+ 1.249 1 2 cbr 500 ------- 1 0.0 2.0 47 47
+ 1.25 0 1 cbr 500 ------- 1 0.0 2.0 50 50
- 1.25 0 1 cbr 500 ------- 1 0.0 2.0 50 50
r 1.254 0 1 cbr 500 ------- 1 0.0 2.0 48 48
+ 1.254 1 2 cbr 500 ------- 1 0.0 2.0 48 48
- 1.254 1 2 cbr 500 ------- 1 0.0 2.0 30 30
+ 1.255 0 1 cbr 500 ------- 1 0.0 2.0 51 51
- 1.255 0 1 cbr 500 ------- 1 0.0 2.0 51 51
r 1.256 1 2 cbr 500 ------- 1 0.0 2.0 28 28
r 1.259 0 1 cbr 500 ------- 1 0.0 2.0 49 49
+ 1.259 1 2 cbr 500 ------- 1 0.0 2.0 49 49
+ 1.26 0 1 cbr 500 ------- 1 0.0 2.0 52 52
- 1.26 0 1 cbr 500 ------- 1 0.0 2.0 52 52
- 1.262 1 2 cbr 500 ------- 1 0.0 2.0 31 31
r 1.264 0 1 cbr 500 ------- 1 0.0 2.0 50 50
+ 1.264 1 2 cbr 500 ------- 1 0.0 2.0 50 50
r 1.264 1 2 cbr 500 ------- 1 0.0 2.0 29 29
+ 1.265 0 1 cbr 500 ------- 1 0.0 2.0 53 53
- 1.265 0 1 cbr 500 ------- 1 0.0 2.0 53 53
r 1.269 0 1 cbr 500 ------- 1 0.0 2.0 51 51
+ 1.269 1 2 cbr 500 ------- 1 0.0 2.0 51 51
+ 1.27 0 1 cbr 500 ------- 1 0.0 2.0 54 54
- 1.27 0 1 cbr 500 ------- 1 0.0 2.0 54 54
- 1.27 1 2 cbr 500 ------- 1 0.0 2.0 32 32
r 1.272 1 2 cbr 500 ------- 1 0.0 2.0 30 30
r 1.274 0 1 cbr 500 ------- 1 0.0 2.0 52 52
+ 1.274 1 2 cbr 500 ------- 1 0.0 2.0 52 52
+ 1.275 0 1 cbr 500 ------- 1 0.0 2.0 55 55
- 1.275 0 1 cbr 500 ------- 1 0.0 2.0 55 55
- 1.278 1 2 cbr 500 ------- 1 0.0 2.0 33 33
r 1.279 0 1 cbr 500 ------- 1 0.0 2.0 53 53
+ 1.279 1 2 cbr 500 ------- 1 0.0 2.0 53 53
+ 1.28 0 1 cbr 500 ------- 1 0.0 2.0 56 56
- 1.28 0 1 cbr 500 ------- 1 0.0 2.0 56 56
r 1.28 1 2 cbr 500 ------- 1 0.0 2.0 31 31
r 1.284 0 1 cbr 500 ------- 1 0.0 2.0 54 54
+ 1.284 1 2 cbr 500 ------- 1 0.0 2.0 54 54
+ 1.285 0 1 cbr 500 ------- 1 0.0 2.0 57 57
- 1.285 0 1 cbr 500 ------- 1 0.0 2.0 57 57
- 1.286 1 2 cbr 500 ------- 1 0.0 2.0 34 34
r 1.288 1 2 cbr 500 ------- 1 0.0 2.0 32 32
r 1.289 0 1 cbr 500 ------- 1 0.0 2.0 55 55
+ 1.289 1 2 cbr 500 ------- 1 0.0 2.0 55 55
+ 1.29 0 1 cbr 500 ------- 1 0.0 2.0 58 58
- 1.29 0 1 cbr 500 ------- 1 0.0 2.0 58 58
r 1.294 0 1 cbr 500 ------- 1 0.0 2.0 56 56
+ 1.294 1 2 cbr 500 ------- 1 0.0 2.0 56 56
- 1.294 1 2 cbr 500 ------- 1 0.0 2.0 35 35
+ 1.295 0 1 cbr 500 ------- 1 0.0 2.0 59 59
- 1.295 0 1 cbr 500 ------- 1 0.0 2.0 59 59
r 1.296 1 2 cbr 500 ------- 1 0.0 2.0 33 33
r 1.299 0 1 cbr 500 ------- 1 0.0 2.0 57 57
+ 1.299 1 2 cbr 500 ------- 1 0.0 2.0 57 57
+ 1.3 0 1 cbr 500 ------- 1 0.0 2.0 60 60
- 1.3 0 1 cbr 500 ------- 1 0.0 2.0 60 60
- 1.302 1 2 cbr 500 ------- 1 0.0 2.0 36 36
r 1.304 0 1 cbr 500 ------- 1 0.0 2.0 58 58
+ 1.304 1 2 cbr 500 ------- 1 0.0 2.0 58 58
r 1.304 1 2 cbr 500 ------- 1 0.0 2.0 34 34
+ 1.305 0 1 cbr 500 ------- 1 0.0 2.0 61 61
- 1.305 0 1 cbr 500 ------- 1 0.0 2.0 61 61
r 1.309 0 1 cbr 500 ------- 1 0.0 2.0 59 59
+ 1.309 1 2 cbr 500 ------- 1 0.0 2.0 59 59
+ 1.31 0 1 cbr 500 ------- 1 0.0 2.0 62 62
- 1.31 0 1 cbr 500 ------- 1 0.0 2.0 62 62
- 1.31 1 2 cbr 500 ------- 1 0.0 2.0 37 37
r 1.312 1 2 cbr 500 ------- 1 0.0 2.0 35 35
r 1.314 0 1 cbr 500 ------- 1 0.0 2.0 60 60
+ 1.314 1 2 cbr 500 ------- 1 0.0 2.0 60 60
+ 1.315 0 1 cbr 500 ------- 1 0.0 2.0 63 63
- 1.315 0 1 cbr 500 ------- 1 0.0 2.0 63 63
- 1.318 1 2 cbr 500 ------- 1 0.0 2.0 38 38
r 1.319 0 1 cbr 500 ------- 1 0.0 2.0 61 61
+ 1.319 1 2 cbr 500 ------- 1 0.0 2.0 61 61
+ 1.32 0 1 cbr 500 ------- 1 0.0 2.0 64 64
- 1.32 0 1 cbr 500 ------- 1 0.0 2.0 64 64
r 1.32 1 2 cbr 500 ------- 1 0.0 2.0 36 36
r 1.324 0 1 cbr 500 ------- 1 0.0 2.0 62 62
+ 1.324 1 2 cbr 500 ------- 1 0.0 2.0 62 62
+ 1.325 0 1 cbr 500 ------- 1 0.0 2.0 65 65
- 1.325 0 1 cbr 500 ------- 1 0.0 2.0 65 65
- 1.326 1 2 cbr 500 ------- 1 0.0 2.0 39 39
r 1.328 1 2 cbr 500 ------- 1 0.0 2.0 37 37
r 1.329 0 1 cbr 500 ------- 1 0.0 2.0 63 63
+ 1.329 1 2 cbr 500 ------- 1 0.0 2.0 63 63
+ 1.33 0 1 cbr 500 ------- 1 0.0 2.0 66 66
- 1.33 0 1 cbr 500 ------- 1 0.0 2.0 66 66
r 1.334 0 1 cbr 500 ------- 1 0.0 2.0 64 64
+ 1.334 1 2 cbr 500 ------- 1 0.0 2.0 64 64
- 1.334 1 2 cbr 500 ------- 1 0.0 2.0 40 40
+ 1.335 0 1 cbr 500 ------- 1 0.0 2.0 67 67
- 1.335 0 1 cbr 500 ------- 1 0.0 2.0 67 67
r 1.336 1 2 cbr 500 ------- 1 0.0 2.0 38 38
r 1.339 0 1 cbr 500 ------- 1 0.0 2.0 65 65
+ 1.339 1 2 cbr 500 ------- 1 0.0 2.0 65 65
+ 1.34 0 1 cbr 500 ------- 1 0.0 2.0 68 68
- 1.34 0 1 cbr 500 ------- 1 0.0 2.0 68 68
- 1.342 1 2 cbr 500 ------- 1 0.0 2.0 41 41
r 1.344 0 1 cbr 500 ------- 1 0.0 2.0 66 66
+ 1.344 1 2 cbr 500 ------- 1 0.0 2.0 66 66
r 1.344 1 2 cbr 500 ------- 1 0.0 2.0 39 39
+ 1.345 0 1 cbr 500 ------- 1 0.0 2.0 69 69
- 1.345 0 1 cbr 500 ------- 1 0.0 2.0 69 69
r 1.349 0 1 cbr 500 ------- 1 0.0 2.0 67 67
+ 1.349 1 2 cbr 500 ------- 1 0.0 2.0 67 67
+ 1.35 0 1 cbr 500 ------- 1 0.0 2.0 70 70
- 1.35 0 1 cbr 500 ------- 1 0.0 2.0 70 70
- 1.35 1 2 cbr 500 ------- 1 0.0 2.0 42 42
r 1.352 1 2 cbr 500 ------- 1 0.0 2.0 40 40
r 1.354 0 1 cbr 500 ------- 1 0.0 2.0 68 68
+ 1.354 1 2 cbr 500 ------- 1 0.0 2.0 68 68
+ 1.355 0 1 cbr 500 ------- 1 0.0 2.0 71 71
- 1.355 0 1 cbr 500 ------- 1 0.0 2.0 71 71
- 1.358 1 2 cbr 500 ------- 1 0.0 2.0 43 43
r 1.359 0 1 cbr 500 ------- 1 0.0 2.0 69 69
+ 1.359 1 2 cbr 500 ------- 1 0.0 2.0 69 69
+ 1.36 0 1 cbr 500 ------- 1 0.0 2.0 72 72
- 1.36 0 1 cbr 500 ------- 1 0.0 2.0 72 72
r 1.36 1 2 cbr 500 ------- 1 0.0 2.0 41 41
r 1.364 0 1 cbr 500 ------- 1 0.0 2.0 70 70
+ 1.364 1 2 cbr 500 ------- 1 0.0 2.0 70 70
+ 1.365 0 1 cbr 500 ------- 1 0.0 2.0 73 73
- 1.365 0 1 cbr 500 ------- 1 0.0 2.0 73 73
- 1.366 1 2 cbr 500 ------- 1 0.0 2.0 44 44
r 1.368 1 2 cbr 500 ------- 1 0.0 2.0 42 42
r 1.369 0 1 cbr 500 ------- 1 0.0 2.0 71 71
+ 1.369 1 2 cbr 500 ------- 1 0.0 2.0 71 71
+ 1.37 0 1 cbr 500 ------- 1 0.0 2.0 74 74
- 1.37 0 1 cbr 500 ------- 1 0.0 2.0 74 74
r 1.374 0 1 cbr 500 ------- 1 0.0 2.0 72 72
+ 1.374 1 2 cbr 500 ------- 1 0.0 2.0 72 72
- 1.374 1 2 cbr 500 ------- 1 0.0 2.0 45 45
+ 1.375 0 1 cbr 500 ------- 1 0.0 2.0 75 75
- 1.375 0 1 cbr 500 ------- 1 0.0 2.0 75 75
r 1.376 1 2 cbr 500 ------- 1 0.0 2.0 43 43
r 1.379 0 1 cbr 500 ------- 1 0.0 2.0 73 73
+ 1.379 1 2 cbr 500 ------- 1 0.0 2.0 73 73
+ 1.38 0 1 cbr 500 ------- 1 0.0 2.0 76 76
- 1.38 0 1 cbr 500 ------- 1 0.0 2.0 76 76
- 1.382 1 2 cbr 500 ------- 1 0.0 2.0 46 46
r 1.384 0 1 cbr 500 ------- 1 0.0 2.0 74 74
+ 1.384 1 2 cbr 500 ------- 1 0.0 2.0 74 74
r 1.384 1 2 cbr 500 ------- 1 0.0 2.0 44 44
+ 1.385 0 1 cbr 500 ------- 1 0.0 2.0 77 77
- 1.385 0 1 cbr 500 ------- 1 0.0 2.0 77 77
r 1.389 0 1 cbr 500 ------- 1 0.0 2.0 75 75
+ 1.389 1 2 cbr 500 ------- 1 0.0 2.0 75 75
+ 1.39 0 1 cbr 500 ------- 1 0.0 2.0 78 78
- 1.39 0 1 cbr 500 ------- 1 0.0 2.0 78 78
- 1.39 1 2 cbr 500 ------- 1 0.0 2.0 47 47
r 1.392 1 2 cbr 500 ------- 1 0.0 2.0 45 45
r 1.394 0 1 cbr 500 ------- 1 0.0 2.0 76 76
+ 1.394 1 2 cbr 500 ------- 1 0.0 2.0 76 76
+ 1.395 0 1 cbr 500 ------- 1 0.0 2.0 79 79
- 1.395 0 1 cbr 500 ------- 1 0.0 2.0 79 79
- 1.398 1 2 cbr 500 ------- 1 0.0 2.0 48 48
r 1.399 0 1 cbr 500 ------- 1 0.0 2.0 77 77
+ 1.399 1 2 cbr 500 ------- 1 0.0 2.0 77 77
+ 1.4 0 1 cbr 500 ------- 1 0.0 2.0 80 80
- 1.4 0 1 cbr 500 ------- 1 0.0 2.0 80 80
r 1.4 1 2 cbr 500 ------- 1 0.0 2.0 46 46
r 1.404 0 1 cbr 500 ------- 1 0.0 2.0 78 78
+ 1.404 1 2 cbr 500 ------- 1 0.0 2.0 78 78
+ 1.405 0 1 cbr 500 ------- 1 0.0 2.0 81 81
- 1.405 0 1 cbr 500 ------- 1 0.0 2.0 81 81
- 1.406 1 2 cbr 500 ------- 1 0.0 2.0 49 49
r 1.408 1 2 cbr 500 ------- 1 0.0 2.0 47 47
r 1.409 0 1 cbr 500 ------- 1 0.0 2.0 79 79
+ 1.409 1 2 cbr 500 ------- 1 0.0 2.0 79 79
+ 1.41 0 1 cbr 500 ------- 1 0.0 2.0 82 82
- 1.41 0 1 cbr 500 ------- 1 0.0 2.0 82 82
r 1.414 0 1 cbr 500 ------- 1 0.0 2.0 80 80
+ 1.414 1 2 cbr 500 ------- 1 0.0 2.0 80 80
- 1.414 1 2 cbr 500 ------- 1 0.0 2.0 50 50
+ 1.415 0 1 cbr 500 ------- 1 0.0 2.0 83 83
- 1.415 0 1 cbr 500 ------- 1 0.0 2.0 83 83
r 1.416 1 2 cbr 500 ------- 1 0.0 2.0 48 48
r 1.419 0 1 cbr 500 ------- 1 0.0 2.0 81 81
+ 1.419 1 2 cbr 500 ------- 1 0.0 2.0 81 81
+ 1.42 0 1 cbr 500 ------- 1 0.0 2.0 84 84
- 1.42 0 1 cbr 500 ------- 1 0.0 2.0 84 84
- 1.422 1 2 cbr 500 ------- 1 0.0 2.0 51 51
r 1.424 0 1 cbr 500 ------- 1 0.0 2.0 82 82
+ 1.424 1 2 cbr 500 ------- 1 0.0 2.0 82 82
r 1.424 1 2 cbr 500 ------- 1 0.0 2.0 49 49
+ 1.425 0 1 cbr 500 ------- 1 0.0 2.0 85 85
- 1.425 0 1 cbr 500 ------- 1 0.0 2.0 85 85
r 1.429 0 1 cbr 500 ------- 1 0.0 2.0 83 83
+ 1.429 1 2 cbr 500 ------- 1 0.0 2.0 83 83
+ 1.43 0 1 cbr 500 ------- 1 0.0 2.0 86 86
- 1.43 0 1 cbr 500 ------- 1 0.0 2.0 86 86
- 1.43 1 2 cbr 500 ------- 1 0.0 2.0 52 52
r 1.432 1 2 cbr 500 ------- 1 0.0 2.0 50 50
r 1.434 0 1 cbr 500 ------- 1 0.0 2.0 84 84
+ 1.434 1 2 cbr 500 ------- 1 0.0 2.0 84 84
+ 1.435 0 1 cbr 500 ------- 1 0.0 2.0 87 87
- 1.435 0 1 cbr 500 ------- 1 0.0 2.0 87 87
- 1.438 1 2 cbr 500 ------- 1 0.0 2.0 53 53
r 1.439 0 1 cbr 500 ------- 1 0.0 2.0 85 85
+ 1.439 1 2 cbr 500 ------- 1 0.0 2.0 85 85
+ 1.44 0 1 cbr 500 ------- 1 0.0 2.0 88 88
- 1.44 0 1 cbr 500 ------- 1 0.0 2.0 88 88
r 1.44 1 2 cbr 500 ------- 1 0.0 2.0 51 51
r 1.444 0 1 cbr 500 ------- 1 0.0 2.0 86 86
+ 1.444 1 2 cbr 500 ------- 1 0.0 2.0 86 86
+ 1.445 0 1 cbr 500 ------- 1 0.0 2.0 89 89
- 1.445 0 1 cbr 500 ------- 1 0.0 2.0 89 89
- 1.446 1 2 cbr 500 ------- 1 0.0 2.0 54 54
r 1.448 1 2 cbr 500 ------- 1 0.0 2.0 52 52
r 1.449 0 1 cbr 500 ------- 1 0.0 2.0 87 87
+ 1.449 1 2 cbr 500 ------- 1 0.0 2.0 87 87
+ 1.45 0 1 cbr 500 ------- 1 0.0 2.0 90 90
- 1.45 0 1 cbr 500 ------- 1 0.0 2.0 90 90
r 1.454 0 1 cbr 500 ------- 1 0.0 2.0 88 88
+ 1.454 1 2 cbr 500 ------- 1 0.0 2.0 88 88
- 1.454 1 2 cbr 500 ------- 1 0.0 2.0 55 55
+ 1.455 0 1 cbr 500 ------- 1 0.0 2.0 91 91
- 1.455 0 1 cbr 500 ------- 1 0.0 2.0 91 91
r 1.456 1 2 cbr 500 ------- 1 0.0 2.0 53 53
r 1.459 0 1 cbr 500 ------- 1 0.0 2.0 89 89
+ 1.459 1 2 cbr 500 ------- 1 0.0 2.0 89 89
+ 1.46 0 1 cbr 500 ------- 1 0.0 2.0 92 92
- 1.46 0 1 cbr 500 ------- 1 0.0 2.0 92 92
- 1.462 1 2 cbr 500 ------- 1 0.0 2.0 56 56
r 1.464 0 1 cbr 500 ------- 1 0.0 2.0 90 90
+ 1.464 1 2 cbr 500 ------- 1 0.0 2.0 90 90
r 1.464 1 2 cbr 500 ------- 1 0.0 2.0 54 54
+ 1.465 0 1 cbr 500 ------- 1 0.0 2.0 93 93
- 1.465 0 1 cbr 500 ------- 1 0.0 2.0 93 93
r 1.469 0 1 cbr 500 ------- 1 0.0 2.0 91 91
+ 1.469 1 2 cbr 500 ------- 1 0.0 2.0 91 91
+ 1.47 0 1 cbr 500 ------- 1 0.0 2.0 94 94
- 1.47 0 1 cbr 500 ------- 1 0.0 2.0 94 94
- 1.47 1 2 cbr 500 ------- 1 0.0 2.0 57 57
r 1.472 1 2 cbr 500 ------- 1 0.0 2.0 55 55
r 1.474 0 1 cbr 500 ------- 1 0.0 2.0 92 92
+ 1.474 1 2 cbr 500 ------- 1 0.0 2.0 92 92
+ 1.475 0 1 cbr 500 ------- 1 0.0 2.0 95 95
- 1.475 0 1 cbr 500 ------- 1 0.0 2.0 95 95
- 1.478 1 2 cbr 500 ------- 1 0.0 2.0 58 58
r 1.479 0 1 cbr 500 ------- 1 0.0 2.0 93 93
+ 1.479 1 2 cbr 500 ------- 1 0.0 2.0 93 93
+ 1.48 0 1 cbr 500 ------- 1 0.0 2.0 96 96
- 1.48 0 1 cbr 500 ------- 1 0.0 2.0 96 96
r 1.48 1 2 cbr 500 ------- 1 0.0 2.0 56 56
r 1.484 0 1 cbr 500 ------- 1 0.0 2.0 94 94
+ 1.484 1 2 cbr 500 ------- 1 0.0 2.0 94 94
+ 1.485 0 1 cbr 500 ------- 1 0.0 2.0 97 97
- 1.485 0 1 cbr 500 ------- 1 0.0 2.0 97 97
- 1.486 1 2 cbr 500 ------- 1 0.0 2.0 59 59
r 1.488 1 2 cbr 500 ------- 1 0.0 2.0 57 57
r 1.489 0 1 cbr 500 ------- 1 0.0 2.0 95 95
+ 1.489 1 2 cbr 500 ------- 1 0.0 2.0 95 95
+ 1.49 0 1 cbr 500 ------- 1 0.0 2.0 98 98
- 1.49 0 1 cbr 500 ------- 1 0.0 2.0 98 98
r 1.494 0 1 cbr 500 ------- 1 0.0 2.0 96 96
+ 1.494 1 2 cbr 500 ------- 1 0.0 2.0 96 96
- 1.494 1 2 cbr 500 ------- 1 0.0 2.0 60 60
+ 1.495 0 1 cbr 500 ------- 1 0.0 2.0 99 99
- 1.495 0 1 cbr 500 ------- 1 0.0 2.0 99 99
r 1.496 1 2 cbr 500 ------- 1 0.0 2.0 58 58
r 1.499 0 1 cbr 500 ------- 1 0.0 2.0 97 97
+ 1.499 1 2 cbr 500 ------- 1 0.0 2.0 97 97
+ 1.5 0 1 cbr 500 ------- 1 0.0 2.0 100 100
- 1.5 0 1 cbr 500 ------- 1 0.0 2.0 100 100
- 1.502 1 2 cbr 500 ------- 1 0.0 2.0 61 61
r 1.504 0 1 cbr 500 ------- 1 0.0 2.0 98 98
+ 1.504 1 2 cbr 500 ------- 1 0.0 2.0 98 98
r 1.504 1 2 cbr 500 ------- 1 0.0 2.0 59 59
+ 1.505 0 1 cbr 500 ------- 1 0.0 2.0 101 101
- 1.505 0 1 cbr 500 ------- 1 0.0 2.0 101 101
r 1.509 0 1 cbr 500 ------- 1 0.0 2.0 99 99
+ 1.509 1 2 cbr 500 ------- 1 0.0 2.0 99 99
+ 1.51 0 1 cbr 500 ------- 1 0.0 2.0 102 102
- 1.51 0 1 cbr 500 ------- 1 0.0 2.0 102 102
- 1.51 1 2 cbr 500 ------- 1 0.0 2.0 62 62
r 1.512 1 2 cbr 500 ------- 1 0.0 2.0 60 60
r 1.514 0 1 cbr 500 ------- 1 0.0 2.0 100 100
+ 1.514 1 2 cbr 500 ------- 1 0.0 2.0 100 100
+ 1.515 0 1 cbr 500 ------- 1 0.0 2.0 103 103
- 1.515 0 1 cbr 500 ------- 1 0.0 2.0 103 103
- 1.518 1 2 cbr 500 ------- 1 0.0 2.0 63 63
r 1.519 0 1 cbr 500 ------- 1 0.0 2.0 101 101
+ 1.519 1 2 cbr 500 ------- 1 0.0 2.0 101 101
+ 1.52 0 1 cbr 500 ------- 1 0.0 2.0 104 104
- 1.52 0 1 cbr 500 ------- 1 0.0 2.0 104 104
r 1.52 1 2 cbr 500 ------- 1 0.0 2.0 61 61
r 1.524 0 1 cbr 500 ------- 1 0.0 2.0 102 102
+ 1.524 1 2 cbr 500 ------- 1 0.0 2.0 102 102
+ 1.525 0 1 cbr 500 ------- 1 0.0 2.0 105 105
- 1.525 0 1 cbr 500 ------- 1 0.0 2.0 105 105
- 1.526 1 2 cbr 500 ------- 1 0.0 2.0 64 64
r 1.528 1 2 cbr 500 ------- 1 0.0 2.0 62 62
r 1.529 0 1 cbr 500 ------- 1 0.0 2.0 103 103
+ 1.529 1 2 cbr 500 ------- 1 0.0 2.0 103 103
+ 1.53 0 1 cbr 500 ------- 1 0.0 2.0 106 106
- 1.53 0 1 cbr 500 ------- 1 0.0 2.0 106 106
r 1.534 0 1 cbr 500 ------- 1 0.0 2.0 104 104
+ 1.534 1 2 cbr 500 ------- 1 0.0 2.0 104 104
- 1.534 1 2 cbr 500 ------- 1 0.0 2.0 65 65
+ 1.535 0 1 cbr 500 ------- 1 0.0 2.0 107 107
- 1.535 0 1 cbr 500 ------- 1 0.0 2.0 107 107
r 1.536 1 2 cbr 500 ------- 1 0.0 2.0 63 63
r 1.539 0 1 cbr 500 ------- 1 0.0 2.0 105 105
+ 1.539 1 2 cbr 500 ------- 1 0.0 2.0 105 105
+ 1.54 0 1 cbr 500 ------- 1 0.0 2.0 108 108
- 1.54 0 1 cbr 500 ------- 1 0.0 2.0 108 108
- 1.542 1 2 cbr 500 ------- 1 0.0 2.0 66 66
r 1.544 0 1 cbr 500 ------- 1 0.0 2.0 106 106
+ 1.544 1 2 cbr 500 ------- 1 0.0 2.0 106 106
r 1.544 1 2 cbr 500 ------- 1 0.0 2.0 64 64
+ 1.545 0 1 cbr 500 ------- 1 0.0 2.0 109 109
- 1.545 0 1 cbr 500 ------- 1 0.0 2.0 109 109
r 1.549 0 1 cbr 500 ------- 1 0.0 2.0 107 107
+ 1.549 1 2 cbr 500 ------- 1 0.0 2.0 107 107
+ 1.55 0 1 cbr 500 ------- 1 0.0 2.0 110 110
- 1.55 0 1 cbr 500 ------- 1 0.0 2.0 110 110
- 1.55 1 2 cbr 500 ------- 1 0.0 2.0 67 67
r 1.552 1 2 cbr 500 ------- 1 0.0 2.0 65 65
r 1.554 0 1 cbr 500 ------- 1 0.0 2.0 108 108
+ 1.554 1 2 cbr 500 ------- 1 0.0 2.0 108 108
+ 1.555 0 1 cbr 500 ------- 1 0.0 2.0 111 111
- 1.555 0 1 cbr 500 ------- 1 0.0 2.0 111 111
- 1.558 1 2 cbr 500 ------- 1 0.0 2.0 68 68
r 1.559 0 1 cbr 500 ------- 1 0.0 2.0 109 109
+ 1.559 1 2 cbr 500 ------- 1 0.0 2.0 109 109
+ 1.56 0 1 cbr 500 ------- 1 0.0 2.0 112 112
- 1.56 0 1 cbr 500 ------- 1 0.0 2.0 112 112
r 1.56 1 2 cbr 500 ------- 1 0.0 2.0 66 66
r 1.564 0 1 cbr 500 ------- 1 0.0 2.0 110 110
+ 1.564 1 2 cbr 500 ------- 1 0.0 2.0 110 110
+ 1.565 0 1 cbr 500 ------- 1 0.0 2.0 113 113
- 1.565 0 1 cbr 500 ------- 1 0.0 2.0 113 113
- 1.566 1 2 cbr 500 ------- 1 0.0 2.0 69 69
r 1.568 1 2 cbr 500 ------- 1 0.0 2.0 67 67
r 1.569 0 1 cbr 500 ------- 1 0.0 2.0 111 111
+ 1.569 1 2 cbr 500 ------- 1 0.0 2.0 111 111
+ 1.57 0 1 cbr 500 ------- 1 0.0 2.0 114 114
- 1.57 0 1 cbr 500 ------- 1 0.0 2.0 114 114
r 1.574 0 1 cbr 500 ------- 1 0.0 2.0 112 112
+ 1.574 1 2 cbr 500 ------- 1 0.0 2.0 112 112
- 1.574 1 2 cbr 500 ------- 1 0.0 2.0 70 70
+ 1.575 0 1 cbr 500 ------- 1 0.0 2.0 115 115
- 1.575 0 1 cbr 500 ------- 1 0.0 2.0 115 115
r 1.576 1 2 cbr 500 ------- 1 0.0 2.0 68 68
r 1.579 0 1 cbr 500 ------- 1 0.0 2.0 113 113
+ 1.579 1 2 cbr 500 ------- 1 0.0 2.0 113 113
+ 1.58 0 1 cbr 500 ------- 1 0.0 2.0 116 116
- 1.58 0 1 cbr 500 ------- 1 0.0 2.0 116 116
- 1.582 1 2 cbr 500 ------- 1 0.0 2.0 71 71
r 1.584 0 1 cbr 500 ------- 1 0.0 2.0 114 114
+ 1.584 1 2 cbr 500 ------- 1 0.0 2.0 114 114
r 1.584 1 2 cbr 500 ------- 1 0.0 2.0 69 69
+ 1.585 0 1 cbr 500 ------- 1 0.0 2.0 117 117
- 1.585 0 1 cbr 500 ------- 1 0.0 2.0 117 117
r 1.589 0 1 cbr 500 ------- 1 0.0 2.0 115 115
+ 1.589 1 2 cbr 500 ------- 1 0.0 2.0 115 115
+ 1.59 0 1 cbr 500 ------- 1 0.0 2.0 118 118
- 1.59 0 1 cbr 500 ------- 1 0.0 2.0 118 118
- 1.59 1 2 cbr 500 ------- 1 0.0 2.0 72 72
r 1.592 1 2 cbr 500 ------- 1 0.0 2.0 70 70
r 1.594 0 1 cbr 500 ------- 1 0.0 2.0 116 116
+ 1.594 1 2 cbr 500 ------- 1 0.0 2.0 116 116
+ 1.595 0 1 cbr 500 ------- 1 0.0 2.0 119 119
- 1.595 0 1 cbr 500 ------- 1 0.0 2.0 119 119
- 1.598 1 2 cbr 500 ------- 1 0.0 2.0 73 73
r 1.599 0 1 cbr 500 ------- 1 0.0 2.0 117 117
+ 1.599 1 2 cbr 500 ------- 1 0.0 2.0 117 117
+ 1.6 0 1 cbr 500 ------- 1 0.0 2.0 120 120
- 1.6 0 1 cbr 500 ------- 1 0.0 2.0 120 120
r 1.6 1 2 cbr 500 ------- 1 0.0 2.0 71 71
r 1.604 0 1 cbr 500 ------- 1 0.0 2.0 118 118
+ 1.604 1 2 cbr 500 ------- 1 0.0 2.0 118 118
+ 1.605 0 1 cbr 500 ------- 1 0.0 2.0 121 121
- 1.605 0 1 cbr 500 ------- 1 0.0 2.0 121 121
- 1.606 1 2 cbr 500 ------- 1 0.0 2.0 74 74
r 1.608 1 2 cbr 500 ------- 1 0.0 2.0 72 72
r 1.609 0 1 cbr 500 ------- 1 0.0 2.0 119 119
+ 1.609 1 2 cbr 500 ------- 1 0.0 2.0 119 119
+ 1.61 0 1 cbr 500 ------- 1 0.0 2.0 122 122
- 1.61 0 1 cbr 500 ------- 1 0.0 2.0 122 122
r 1.614 0 1 cbr 500 ------- 1 0.0 2.0 120 120
+ 1.614 1 2 cbr 500 ------- 1 0.0 2.0 120 120
- 1.614 1 2 cbr 500 ------- 1 0.0 2.0 75 75
+ 1.615 0 1 cbr 500 ------- 1 0.0 2.0 123 123
- 1.615 0 1 cbr 500 ------- 1 0.0 2.0 123 123
r 1.616 1 2 cbr 500 ------- 1 0.0 2.0 73 73
r 1.619 0 1 cbr 500 ------- 1 0.0 2.0 121 121
+ 1.619 1 2 cbr 500 ------- 1 0.0 2.0 121 121
+ 1.62 0 1 cbr 500 ------- 1 0.0 2.0 124 124
- 1.62 0 1 cbr 500 ------- 1 0.0 2.0 124 124
- 1.622 1 2 cbr 500 ------- 1 0.0 2.0 76 76
r 1.624 0 1 cbr 500 ------- 1 0.0 2.0 122 122
+ 1.624 1 2 cbr 500 ------- 1 0.0 2.0 122 122
r 1.624 1 2 cbr 500 ------- 1 0.0 2.0 74 74
+ 1.625 0 1 cbr 500 ------- 1 0.0 2.0 125 125
- 1.625 0 1 cbr 500 ------- 1 0.0 2.0 125 125
r 1.629 0 1 cbr 500 ------- 1 0.0 2.0 123 123
+ 1.629 1 2 cbr 500 ------- 1 0.0 2.0 123 123
+ 1.63 0 1 cbr 500 ------- 1 0.0 2.0 126 126
- 1.63 0 1 cbr 500 ------- 1 0.0 2.0 126 126
- 1.63 1 2 cbr 500 ------- 1 0.0 2.0 77 77
r 1.632 1 2 cbr 500 ------- 1 0.0 2.0 75 75
r 1.634 0 1 cbr 500 ------- 1 0.0 2.0 124 124
+ 1.634 1 2 cbr 500 ------- 1 0.0 2.0 124 124
+ 1.635 0 1 cbr 500 ------- 1 0.0 2.0 127 127
- 1.635 0 1 cbr 500 ------- 1 0.0 2.0 127 127
- 1.638 1 2 cbr 500 ------- 1 0.0 2.0 78 78
r 1.639 0 1 cbr 500 ------- 1 0.0 2.0 125 125
+ 1.639 1 2 cbr 500 ------- 1 0.0 2.0 125 125
+ 1.64 0 1 cbr 500 ------- 1 0.0 2.0 128 128
- 1.64 0 1 cbr 500 ------- 1 0.0 2.0 128 128
r 1.64 1 2 cbr 500 ------- 1 0.0 2.0 76 76
r 1.644 0 1 cbr 500 ------- 1 0.0 2.0 126 126
+ 1.644 1 2 cbr 500 ------- 1 0.0 2.0 126 126
+ 1.645 0 1 cbr 500 ------- 1 0.0 2.0 129 129
- 1.645 0 1 cbr 500 ------- 1 0.0 2.0 129 129
- 1.646 1 2 cbr 500 ------- 1 0.0 2.0 79 79
r 1.648 1 2 cbr 500 ------- 1 0.0 2.0 77 77
r 1.649 0 1 cbr 500 ------- 1 0.0 2.0 127 127
+ 1.649 1 2 cbr 500 ------- 1 0.0 2.0 127 127
+ 1.65 0 1 cbr 500 ------- 1 0.0 2.0 130 130
- 1.65 0 1 cbr 500 ------- 1 0.0 2.0 130 130
r 1.654 0 1 cbr 500 ------- 1 0.0 2.0 128 128
+ 1.654 1 2 cbr 500 ------- 1 0.0 2.0 128 128
- 1.654 1 2 cbr 500 ------- 1 0.0 2.0 80 80
+ 1.655 0 1 cbr 500 ------- 1 0.0 2.0 131 131
- 1.655 0 1 cbr 500 ------- 1 0.0 2.0 131 131
r 1.656 1 2 cbr 500 ------- 1 0.0 2.0 78 78
r 1.659 0 1 cbr 500 ------- 1 0.0 2.0 129 129