+ 1 0 2 tcp 40 ------- 1 0.0 4.0 0 0
- 1 0 2 tcp 40 ------- 1 0.0 4.0 0 0
r 1.01032 0 2 tcp 40 ------- 1 0.0 4.0 0 0
+ 1.01032 2 3 tcp 40 ------- 1 0.0 4.0 0 0
- 1.01032 2 3 tcp 40 ------- 1 0.0 4.0 0 0
r 1.02064 2 3 tcp 40 ------- 1 0.0 4.0 0 0
+ 1.02064 3 4 tcp 40 ------- 1 0.0 4.0 0 0
- 1.02064 3 4 tcp 40 ------- 1 0.0 4.0 0 0
r 1.03096 3 4 tcp 40 ------- 1 0.0 4.0 0 0
+ 1.03096 4 3 ack 40 ------- 1 4.0 0.0 0 1
- 1.03096 4 3 ack 40 ------- 1 4.0 0.0 0 1
r 1.04128 4 3 ack 40 ------- 1 4.0 0.0 0 1
+ 1.04128 3 2 ack 40 ------- 1 4.0 0.0 0 1
- 1.04128 3 2 ack 40 ------- 1 4.0 0.0 0 1
r 1.0516 3 2 ack 40 ------- 1 4.0 0.0 0 1
+ 1.0516 2 0 ack 40 ------- 1 4.0 0.0 0 1
- 1.0516 2 0 ack 40 ------- 1 4.0 0.0 0 1
r 1.06192 2 0 ack 40 ------- 1 4.0 0.0 0 1
+ 1.06192 0 2 tcp 1040 ------- 1 0.0 4.0 1 2
- 1.06192 0 2 tcp 1040 ------- 1 0.0 4.0 1 2
+ 1.06192 0 2 tcp 1040 ------- 1 0.0 4.0 2 3
- 1.07024 0 2 tcp 1040 ------- 1 0.0 4.0 2 3
r 1.08024 0 2 tcp 1040 ------- 1 0.0 4.0 1 2
+ 1.08024 2 3 tcp 1040 ------- 1 0.0 4.0 1 2
- 1.08024 2 3 tcp 1040 ------- 1 0.0 4.0 1 2
r 1.08856 0 2 tcp 1040 ------- 1 0.0 4.0 2 3
+ 1.08856 2 3 tcp 1040 ------- 1 0.0 4.0 2 3
- 1.08856 2 3 tcp 1040 ------- 1 0.0 4.0 2 3
r 1.09856 2 3 tcp 1040 ------- 1 0.0 4.0 1 2
+ 1.09856 3 4 tcp 1040 ------- 1 0.0 4.0 1 2
- 1.09856 3 4 tcp 1040 ------- 1 0.0 4.0 1 2
r 1.10688 2 3 tcp 1040 ------- 1 0.0 4.0 2 3
+ 1.10688 3 4 tcp 1040 ------- 1 0.0 4.0 2 3
- 1.10688 3 4 tcp 1040 ------- 1 0.0 4.0 2 3
r 1.11688 3 4 tcp 1040 ------- 1 0.0 4.0 1 2
+ 1.11688 4 3 ack 40 ------- 1 4.0 0.0 1 4
- 1.11688 4 3 ack 40 ------- 1 4.0 0.0 1 4
r 1.1252 3 4 tcp 1040 ------- 1 0.0 4.0 2 3
+ 1.1252 4 3 ack 40 ------- 1 4.0 0.0 2 5
- 1.1252 4 3 ack 40 ------- 1 4.0 0.0 2 5
r 1.1272 4 3 ack 40 ------- 1 4.0 0.0 1 4
+ 1.1272 3 2 ack 40 ------- 1 4.0 0.0 1 4
- 1.1272 3 2 ack 40 ------- 1 4.0 0.0 1 4
r 1.13552 4 3 ack 40 ------- 1 4.0 0.0 2 5
+ 1.13552 3 2 ack 40 ------- 1 4.0 0.0 2 5
- 1.13552 3 2 ack 40 ------- 1 4.0 0.0 2 5
r 1.13752 3 2 ack 40 ------- 1 4.0 0.0 1 4
+ 1.13752 2 0 ack 40 ------- 1 4.0 0.0 1 4
- 1.13752 2 0 ack 40 ------- 1 4.0 0.0 1 4
r 1.14584 3 2 ack 40 ------- 1 4.0 0.0 2 5
+ 1.14584 2 0 ack 40 ------- 1 4.0 0.0 2 5
- 1.14584 2 0 ack 40 ------- 1 4.0 0.0 2 5
r 1.14784 2 0 ack 40 ------- 1 4.0 0.0 1 4
+ 1.14784 0 2 tcp 1040 ------- 1 0.0 4.0 3 6
- 1.14784 0 2 tcp 1040 ------- 1 0.0 4.0 3 6
+ 1.14784 0 2 tcp 1040 ------- 1 0.0 4.0 4 7
r 1.15616 2 0 ack 40 ------- 1 4.0 0.0 2 5
+ 1.15616 0 2 tcp 1040 ------- 1 0.0 4.0 5 8
+ 1.15616 0 2 tcp 1040 ------- 1 0.0 4.0 6 9
- 1.15616 0 2 tcp 1040 ------- 1 0.0 4.0 4 7
- 1.16448 0 2 tcp 1040 ------- 1 0.0 4.0 5 8
r 1.16616 0 2 tcp 1040 ------- 1 0.0 4.0 3 6
+ 1.16616 2 3 tcp 1040 ------- 1 0.0 4.0 3 6
- 1.16616 2 3 tcp 1040 ------- 1 0.0 4.0 3 6
- 1.1728 0 2 tcp 1040 ------- 1 0.0 4.0 6 9
r 1.17448 0 2 tcp 1040 ------- 1 0.0 4.0 4 7
+ 1.17448 2 3 tcp 1040 ------- 1 0.0 4.0 4 7
- 1.17448 2 3 tcp 1040 ------- 1 0.0 4.0 4 7
r 1.1828 0 2 tcp 1040 ------- 1 0.0 4.0 5 8
+ 1.1828 2 3 tcp 1040 ------- 1 0.0 4.0 5 8
- 1.1828 2 3 tcp 1040 ------- 1 0.0 4.0 5 8
r 1.18448 2 3 tcp 1040 ------- 1 0.0 4.0 3 6
+ 1.18448 3 4 tcp 1040 ------- 1 0.0 4.0 3 6
- 1.18448 3 4 tcp 1040 ------- 1 0.0 4.0 3 6
r 1.19112 0 2 tcp 1040 ------- 1 0.0 4.0 6 9
+ 1.19112 2 3 tcp 1040 ------- 1 0.0 4.0 6 9
- 1.19112 2 3 tcp 1040 ------- 1 0.0 4.0 6 9
r 1.1928 2 3 tcp 1040 ------- 1 0.0 4.0 4 7
+ 1.1928 3 4 tcp 1040 ------- 1 0.0 4.0 4 7
- 1.1928 3 4 tcp 1040 ------- 1 0.0 4.0 4 7
r 1.20112 2 3 tcp 1040 ------- 1 0.0 4.0 5 8
+ 1.20112 3 4 tcp 1040 ------- 1 0.0 4.0 5 8
- 1.20112 3 4 tcp 1040 ------- 1 0.0 4.0 5 8
r 1.2028 3 4 tcp 1040 ------- 1 0.0 4.0 3 6
+ 1.2028 4 3 ack 40 ------- 1 4.0 0.0 3 10
- 1.2028 4 3 ack 40 ------- 1 4.0 0.0 3 10
r 1.20944 2 3 tcp 1040 ------- 1 0.0 4.0 6 9
+ 1.20944 3 4 tcp 1040 ------- 1 0.0 4.0 6 9
- 1.20944 3 4 tcp 1040 ------- 1 0.0 4.0 6 9
r 1.21112 3 4 tcp 1040 ------- 1 0.0 4.0 4 7
+ 1.21112 4 3 ack 40 ------- 1 4.0 0.0 4 11
- 1.21112 4 3 ack 40 ------- 1 4.0 0.0 4 11
r 1.21312 4 3 ack 40 ------- 1 4.0 0.0 3 10
+ 1.21312 3 2 ack 40 ------- 1 4.0 0.0 3 10
- 1.21312 3 2 ack 40 ------- 1 4.0 0.0 3 10
r 1.21944 3 4 tcp 1040 ------- 1 0.0 4.0 5 8
+ 1.21944 4 3 ack 40 ------- 1 4.0 0.0 5 12
- 1.21944 4 3 ack 40 ------- 1 4.0 0.0 5 12
r 1.22144 4 3 ack 40 ------- 1 4.0 0.0 4 11
+ 1.22144 3 2 ack 40 ------- 1 4.0 0.0 4 11
- 1.22144 3 2 ack 40 ------- 1 4.0 0.0 4 11
r 1.22344 3 2 ack 40 ------- 1 4.0 0.0 3 10
+ 1.22344 2 0 ack 40 ------- 1 4.0 0.0 3 10
- 1.22344 2 0 ack 40 ------- 1 4.0 0.0 3 10
r 1.22776 3 4 tcp 1040 ------- 1 0.0 4.0 6 9
+ 1.22776 4 3 ack 40 ------- 1 4.0 0.0 6 13
- 1.22776 4 3 ack 40 ------- 1 4.0 0.0 6 13
r 1.22976 4 3 ack 40 ------- 1 4.0 0.0 5 12
+ 1.22976 3 2 ack 40 ------- 1 4.0 0.0 5 12
- 1.22976 3 2 ack 40 ------- 1 4.0 0.0 5 12
r 1.23176 3 2 ack 40 ------- 1 4.0 0.0 4 11
+ 1.23176 2 0 ack 40 ------- 1 4.0 0.0 4 11
- 1.23176 2 0 ack 40 ------- 1 4.0 0.0 4 11
r 1.23376 2 0 ack 40 ------- 1 4.0 0.0 3 10
+ 1.23376 0 2 tcp 1040 ------- 1 0.0 4.0 7 14
- 1.23376 0 2 tcp 1040 ------- 1 0.0 4.0 7 14
+ 1.23376 0 2 tcp 1040 ------- 1 0.0 4.0 8 15
r 1.23808 4 3 ack 40 ------- 1 4.0 0.0 6 13
+ 1.23808 3 2 ack 40 ------- 1 4.0 0.0 6 13
- 1.23808 3 2 ack 40 ------- 1 4.0 0.0 6 13
r 1.24008 3 2 ack 40 ------- 1 4.0 0.0 5 12
+ 1.24008 2 0 ack 40 ------- 1 4.0 0.0 5 12
- 1.24008 2 0 ack 40 ------- 1 4.0 0.0 5 12
r 1.24208 2 0 ack 40 ------- 1 4.0 0.0 4 11
+ 1.24208 0 2 tcp 1040 ------- 1 0.0 4.0 9 16
+ 1.24208 0 2 tcp 1040 ------- 1 0.0 4.0 10 17
- 1.24208 0 2 tcp 1040 ------- 1 0.0 4.0 8 15
r 1.2484 3 2 ack 40 ------- 1 4.0 0.0 6 13
+ 1.2484 2 0 ack 40 ------- 1 4.0 0.0 6 13
- 1.2484 2 0 ack 40 ------- 1 4.0 0.0 6 13
r 1.2504 2 0 ack 40 ------- 1 4.0 0.0 5 12
+ 1.2504 0 2 tcp 1040 ------- 1 0.0 4.0 11 18
+ 1.2504 0 2 tcp 1040 ------- 1 0.0 4.0 12 19
- 1.2504 0 2 tcp 1040 ------- 1 0.0 4.0 9 16
r 1.25208 0 2 tcp 1040 ------- 1 0.0 4.0 7 14
+ 1.25208 2 3 tcp 1040 ------- 1 0.0 4.0 7 14
- 1.25208 2 3 tcp 1040 ------- 1 0.0 4.0 7 14
r 1.25872 2 0 ack 40 ------- 1 4.0 0.0 6 13
+ 1.25872 0 2 tcp 1040 ------- 1 0.0 4.0 13 20
+ 1.25872 0 2 tcp 1040 ------- 1 0.0 4.0 14 21
- 1.25872 0 2 tcp 1040 ------- 1 0.0 4.0 10 17
r 1.2604 0 2 tcp 1040 ------- 1 0.0 4.0 8 15
+ 1.2604 2 3 tcp 1040 ------- 1 0.0 4.0 8 15
- 1.2604 2 3 tcp 1040 ------- 1 0.0 4.0 8 15
- 1.26704 0 2 tcp 1040 ------- 1 0.0 4.0 11 18
r 1.26872 0 2 tcp 1040 ------- 1 0.0 4.0 9 16
+ 1.26872 2 3 tcp 1040 ------- 1 0.0 4.0 9 16
- 1.26872 2 3 tcp 1040 ------- 1 0.0 4.0 9 16
r 1.2704 2 3 tcp 1040 ------- 1 0.0 4.0 7 14
+ 1.2704 3 4 tcp 1040 ------- 1 0.0 4.0 7 14
- 1.2704 3 4 tcp 1040 ------- 1 0.0 4.0 7 14
- 1.27536 0 2 tcp 1040 ------- 1 0.0 4.0 12 19
r 1.27704 0 2 tcp 1040 ------- 1 0.0 4.0 10 17
+ 1.27704 2 3 tcp 1040 ------- 1 0.0 4.0 10 17
- 1.27704 2 3 tcp 1040 ------- 1 0.0 4.0 10 17
r 1.27872 2 3 tcp 1040 ------- 1 0.0 4.0 8 15
+ 1.27872 3 4 tcp 1040 ------- 1 0.0 4.0 8 15
- 1.27872 3 4 tcp 1040 ------- 1 0.0 4.0 8 15
- 1.28368 0 2 tcp 1040 ------- 1 0.0 4.0 13 20
r 1.28536 0 2 tcp 1040 ------- 1 0.0 4.0 11 18
+ 1.28536 2 3 tcp 1040 ------- 1 0.0 4.0 11 18
- 1.28536 2 3 tcp 1040 ------- 1 0.0 4.0 11 18
r 1.28704 2 3 tcp 1040 ------- 1 0.0 4.0 9 16
+ 1.28704 3 4 tcp 1040 ------- 1 0.0 4.0 9 16
- 1.28704 3 4 tcp 1040 ------- 1 0.0 4.0 9 16
r 1.28872 3 4 tcp 1040 ------- 1 0.0 4.0 7 14
+ 1.28872 4 3 ack 40 ------- 1 4.0 0.0 7 22
- 1.28872 4 3 ack 40 ------- 1 4.0 0.0 7 22
- 1.292 0 2 tcp 1040 ------- 1 0.0 4.0 14 21
r 1.29368 0 2 tcp 1040 ------- 1 0.0 4.0 12 19
+ 1.29368 2 3 tcp 1040 ------- 1 0.0 4.0 12 19
- 1.29368 2 3 tcp 1040 ------- 1 0.0 4.0 12 19
r 1.29536 2 3 tcp 1040 ------- 1 0.0 4.0 10 17
+ 1.29536 3 4 tcp 1040 ------- 1 0.0 4.0 10 17
- 1.29536 3 4 tcp 1040 ------- 1 0.0 4.0 10 17
r 1.29704 3 4 tcp 1040 ------- 1 0.0 4.0 8 15
+ 1.29704 4 3 ack 40 ------- 1 4.0 0.0 8 23
- 1.29704 4 3 ack 40 ------- 1 4.0 0.0 8 23
r 1.29904 4 3 ack 40 ------- 1 4.0 0.0 7 22
+ 1.29904 3 2 ack 40 ------- 1 4.0 0.0 7 22
- 1.29904 3 2 ack 40 ------- 1 4.0 0.0 7 22
r 1.302 0 2 tcp 1040 ------- 1 0.0 4.0 13 20
+ 1.302 2 3 tcp 1040 ------- 1 0.0 4.0 13 20
- 1.302 2 3 tcp 1040 ------- 1 0.0 4.0 13 20
r 1.30368 2 3 tcp 1040 ------- 1 0.0 4.0 11 18
+ 1.30368 3 4 tcp 1040 ------- 1 0.0 4.0 11 18
- 1.30368 3 4 tcp 1040 ------- 1 0.0 4.0 11 18
r 1.30536 3 4 tcp 1040 ------- 1 0.0 4.0 9 16
+ 1.30536 4 3 ack 40 ------- 1 4.0 0.0 9 24
- 1.30536 4 3 ack 40 ------- 1 4.0 0.0 9 24
r 1.30736 4 3 ack 40 ------- 1 4.0 0.0 8 23
+ 1.30736 3 2 ack 40 ------- 1 4.0 0.0 8 23
- 1.30736 3 2 ack 40 ------- 1 4.0 0.0 8 23
r 1.30936 3 2 ack 40 ------- 1 4.0 0.0 7 22
+ 1.30936 2 0 ack 40 ------- 1 4.0 0.0 7 22
- 1.30936 2 0 ack 40 ------- 1 4.0 0.0 7 22
r 1.31032 0 2 tcp 1040 ------- 1 0.0 4.0 14 21
+ 1.31032 2 3 tcp 1040 ------- 1 0.0 4.0 14 21
- 1.31032 2 3 tcp 1040 ------- 1 0.0 4.0 14 21
r 1.312 2 3 tcp 1040 ------- 1 0.0 4.0 12 19
+ 1.312 3 4 tcp 1040 ------- 1 0.0 4.0 12 19
- 1.312 3 4 tcp 1040 ------- 1 0.0 4.0 12 19
r 1.31368 3 4 tcp 1040 ------- 1 0.0 4.0 10 17
+ 1.31368 4 3 ack 40 ------- 1 4.0 0.0 10 25
- 1.31368 4 3 ack 40 ------- 1 4.0 0.0 10 25
r 1.31568 4 3 ack 40 ------- 1 4.0 0.0 9 24
+ 1.31568 3 2 ack 40 ------- 1 4.0 0.0 9 24
- 1.31568 3 2 ack 40 ------- 1 4.0 0.0 9 24
r 1.31768 3 2 ack 40 ------- 1 4.0 0.0 8 23
+ 1.31768 2 0 ack 40 ------- 1 4.0 0.0 8 23
- 1.31768 2 0 ack 40 ------- 1 4.0 0.0 8 23
r 1.31968 2 0 ack 40 ------- 1 4.0 0.0 7 22
+ 1.31968 0 2 tcp 1040 ------- 1 0.0 4.0 15 26
- 1.31968 0 2 tcp 1040 ------- 1 0.0 4.0 15 26
+ 1.31968 0 2 tcp 1040 ------- 1 0.0 4.0 16 27
r 1.32032 2 3 tcp 1040 ------- 1 0.0 4.0 13 20
+ 1.32032 3 4 tcp 1040 ------- 1 0.0 4.0 13 20
- 1.32032 3 4 tcp 1040 ------- 1 0.0 4.0 13 20
r 1.322 3 4 tcp 1040 ------- 1 0.0 4.0 11 18
+ 1.322 4 3 ack 40 ------- 1 4.0 0.0 11 28
- 1.322 4 3 ack 40 ------- 1 4.0 0.0 11 28
r 1.324 4 3 ack 40 ------- 1 4.0 0.0 10 25
+ 1.324 3 2 ack 40 ------- 1 4.0 0.0 10 25
- 1.324 3 2 ack 40 ------- 1 4.0 0.0 10 25
r 1.326 3 2 ack 40 ------- 1 4.0 0.0 9 24
+ 1.326 2 0 ack 40 ------- 1 4.0 0.0 9 24
- 1.326 2 0 ack 40 ------- 1 4.0 0.0 9 24
r 1.328 2 0 ack 40 ------- 1 4.0 0.0 8 23
+ 1.328 0 2 tcp 1040 ------- 1 0.0 4.0 17 29
+ 1.328 0 2 tcp 1040 ------- 1 0.0 4.0 18 30
- 1.328 0 2 tcp 1040 ------- 1 0.0 4.0 16 27
r 1.32864 2 3 tcp 1040 ------- 1 0.0 4.0 14 21
+ 1.32864 3 4 tcp 1040 ------- 1 0.0 4.0 14 21
- 1.32864 3 4 tcp 1040 ------- 1 0.0 4.0 14 21
r 1.33032 3 4 tcp 1040 ------- 1 0.0 4.0 12 19
+ 1.33032 4 3 ack 40 ------- 1 4.0 0.0 12 31
- 1.33032 4 3 ack 40 ------- 1 4.0 0.0 12 31
r 1.33232 4 3 ack 40 ------- 1 4.0 0.0 11 28
+ 1.33232 3 2 ack 40 ------- 1 4.0 0.0 11 28
- 1.33232 3 2 ack 40 ------- 1 4.0 0.0 11 28
r 1.33432 3 2 ack 40 ------- 1 4.0 0.0 10 25
+ 1.33432 2 0 ack 40 ------- 1 4.0 0.0 10 25
- 1.33432 2 0 ack 40 ------- 1 4.0 0.0 10 25
r 1.33632 2 0 ack 40 ------- 1 4.0 0.0 9 24
+ 1.33632 0 2 tcp 1040 ------- 1 0.0 4.0 19 32
+ 1.33632 0 2 tcp 1040 ------- 1 0.0 4.0 20 33
- 1.33632 0 2 tcp 1040 ------- 1 0.0 4.0 17 29
r 1.338 0 2 tcp 1040 ------- 1 0.0 4.0 15 26
+ 1.338 2 3 tcp 1040 ------- 1 0.0 4.0 15 26
- 1.338 2 3 tcp 1040 ------- 1 0.0 4.0 15 26
r 1.33864 3 4 tcp 1040 ------- 1 0.0 4.0 13 20
+ 1.33864 4 3 ack 40 ------- 1 4.0 0.0 13 34
- 1.33864 4 3 ack 40 ------- 1 4.0 0.0 13 34
r 1.34064 4 3 ack 40 ------- 1 4.0 0.0 12 31
+ 1.34064 3 2 ack 40 ------- 1 4.0 0.0 12 31
- 1.34064 3 2 ack 40 ------- 1 4.0 0.0 12 31
r 1.34264 3 2 ack 40 ------- 1 4.0 0.0 11 28
+ 1.34264 2 0 ack 40 ------- 1 4.0 0.0 11 28
- 1.34264 2 0 ack 40 ------- 1 4.0 0.0 11 28
r 1.34464 2 0 ack 40 ------- 1 4.0 0.0 10 25
+ 1.34464 0 2 tcp 1040 ------- 1 0.0 4.0 21 35
+ 1.34464 0 2 tcp 1040 ------- 1 0.0 4.0 22 36
- 1.34464 0 2 tcp 1040 ------- 1 0.0 4.0 18 30
r 1.34632 0 2 tcp 1040 ------- 1 0.0 4.0 16 27
+ 1.34632 2 3 tcp 1040 ------- 1 0.0 4.0 16 27
- 1.34632 2 3 tcp 1040 ------- 1 0.0 4.0 16 27
r 1.34696 3 4 tcp 1040 ------- 1 0.0 4.0 14 21
+ 1.34696 4 3 ack 40 ------- 1 4.0 0.0 14 37
- 1.34696 4 3 ack 40 ------- 1 4.0 0.0 14 37
r 1.34896 4 3 ack 40 ------- 1 4.0 0.0 13 34
+ 1.34896 3 2 ack 40 ------- 1 4.0 0.0 13 34
- 1.34896 3 2 ack 40 ------- 1 4.0 0.0 13 34
r 1.35096 3 2 ack 40 ------- 1 4.0 0.0 12 31
+ 1.35096 2 0 ack 40 ------- 1 4.0 0.0 12 31
- 1.35096 2 0 ack 40 ------- 1 4.0 0.0 12 31
r 1.35296 2 0 ack 40 ------- 1 4.0 0.0 11 28
+ 1.35296 0 2 tcp 1040 ------- 1 0.0 4.0 23 38
+ 1.35296 0 2 tcp 1040 ------- 1 0.0 4.0 24 39
- 1.35296 0 2 tcp 1040 ------- 1 0.0 4.0 19 32
r 1.35464 0 2 tcp 1040 ------- 1 0.0 4.0 17 29
+ 1.35464 2 3 tcp 1040 ------- 1 0.0 4.0 17 29
- 1.35464 2 3 tcp 1040 ------- 1 0.0 4.0 17 29
r 1.35632 2 3 tcp 1040 ------- 1 0.0 4.0 15 26
+ 1.35632 3 4 tcp 1040 ------- 1 0.0 4.0 15 26
- 1.35632 3 4 tcp 1040 ------- 1 0.0 4.0 15 26
r 1.35728 4 3 ack 40 ------- 1 4.0 0.0 14 37
+ 1.35728 3 2 ack 40 ------- 1 4.0 0.0 14 37
- 1.35728 3 2 ack 40 ------- 1 4.0 0.0 14 37
r 1.35928 3 2 ack 40 ------- 1 4.0 0.0 13 34
+ 1.35928 2 0 ack 40 ------- 1 4.0 0.0 13 34
- 1.35928 2 0 ack 40 ------- 1 4.0 0.0 13 34
r 1.36128 2 0 ack 40 ------- 1 4.0 0.0 12 31
+ 1.36128 0 2 tcp 1040 ------- 1 0.0 4.0 25 40
+ 1.36128 0 2 tcp 1040 ------- 1 0.0 4.0 26 41
- 1.36128 0 2 tcp 1040 ------- 1 0.0 4.0 20 33
r 1.36296 0 2 tcp 1040 ------- 1 0.0 4.0 18 30
+ 1.36296 2 3 tcp 1040 ------- 1 0.0 4.0 18 30
- 1.36296 2 3 tcp 1040 ------- 1 0.0 4.0 18 30
r 1.36464 2 3 tcp 1040 ------- 1 0.0 4.0 16 27
+ 1.36464 3 4 tcp 1040 ------- 1 0.0 4.0 16 27
- 1.36464 3 4 tcp 1040 ------- 1 0.0 4.0 16 27
r 1.3676 3 2 ack 40 ------- 1 4.0 0.0 14 37
+ 1.3676 2 0 ack 40 ------- 1 4.0 0.0 14 37
- 1.3676 2 0 ack 40 ------- 1 4.0 0.0 14 37
r 1.3696 2 0 ack 40 ------- 1 4.0 0.0 13 34
+ 1.3696 0 2 tcp 1040 ------- 1 0.0 4.0 27 42
+ 1.3696 0 2 tcp 1040 ------- 1 0.0 4.0 28 43
- 1.3696 0 2 tcp 1040 ------- 1 0.0 4.0 21 35
r 1.37128 0 2 tcp 1040 ------- 1 0.0 4.0 19 32
+ 1.37128 2 3 tcp 1040 ------- 1 0.0 4.0 19 32
- 1.37128 2 3 tcp 1040 ------- 1 0.0 4.0 19 32
r 1.37296 2 3 tcp 1040 ------- 1 0.0 4.0 17 29
+ 1.37296 3 4 tcp 1040 ------- 1 0.0 4.0 17 29
- 1.37296 3 4 tcp 1040 ------- 1 0.0 4.0 17 29
r 1.37464 3 4 tcp 1040 ------- 1 0.0 4.0 15 26
+ 1.37464 4 3 ack 40 ------- 1 4.0 0.0 15 44
- 1.37464 4 3 ack 40 ------- 1 4.0 0.0 15 44
r 1.37792 2 0 ack 40 ------- 1 4.0 0.0 14 37
+ 1.37792 0 2 tcp 1040 ------- 1 0.0 4.0 29 45
+ 1.37792 0 2 tcp 1040 ------- 1 0.0 4.0 30 46
- 1.37792 0 2 tcp 1040 ------- 1 0.0 4.0 22 36
r 1.3796 0 2 tcp 1040 ------- 1 0.0 4.0 20 33
+ 1.3796 2 3 tcp 1040 ------- 1 0.0 4.0 20 33
- 1.3796 2 3 tcp 1040 ------- 1 0.0 4.0 20 33
r 1.38128 2 3 tcp 1040 ------- 1 0.0 4.0 18 30
+ 1.38128 3 4 tcp 1040 ------- 1 0.0 4.0 18 30
- 1.38128 3 4 tcp 1040 ------- 1 0.0 4.0 18 30
r 1.38296 3 4 tcp 1040 ------- 1 0.0 4.0 16 27
+ 1.38296 4 3 ack 40 ------- 1 4.0 0.0 16 47
- 1.38296 4 3 ack 40 ------- 1 4.0 0.0 16 47
r 1.38496 4 3 ack 40 ------- 1 4.0 0.0 15 44
+ 1.38496 3 2 ack 40 ------- 1 4.0 0.0 15 44
- 1.38496 3 2 ack 40 ------- 1 4.0 0.0 15 44
- 1.38624 0 2 tcp 1040 ------- 1 0.0 4.0 23 38
r 1.38792 0 2 tcp 1040 ------- 1 0.0 4.0 21 35
+ 1.38792 2 3 tcp 1040 ------- 1 0.0 4.0 21 35
- 1.38792 2 3 tcp 1040 ------- 1 0.0 4.0 21 35
r 1.3896 2 3 tcp 1040 ------- 1 0.0 4.0 19 32
+ 1.3896 3 4 tcp 1040 ------- 1 0.0 4.0 19 32
- 1.3896 3 4 tcp 1040 ------- 1 0.0 4.0 19 32
r 1.39128 3 4 tcp 1040 ------- 1 0.0 4.0 17 29
+ 1.39128 4 3 ack 40 ------- 1 4.0 0.0 17 48
- 1.39128 4 3 ack 40 ------- 1 4.0 0.0 17 48
r 1.39328 4 3 ack 40 ------- 1 4.0 0.0 16 47
+ 1.39328 3 2 ack 40 ------- 1 4.0 0.0 16 47
- 1.39328 3 2 ack 40 ------- 1 4.0 0.0 16 47
- 1.39456 0 2 tcp 1040 ------- 1 0.0 4.0 24 39
r 1.39528 3 2 ack 40 ------- 1 4.0 0.0 15 44
+ 1.39528 2 0 ack 40 ------- 1 4.0 0.0 15 44
- 1.39528 2 0 ack 40 ------- 1 4.0 0.0 15 44
r 1.39624 0 2 tcp 1040 ------- 1 0.0 4.0 22 36
+ 1.39624 2 3 tcp 1040 ------- 1 0.0 4.0 22 36
- 1.39624 2 3 tcp 1040 ------- 1 0.0 4.0 22 36
r 1.39792 2 3 tcp 1040 ------- 1 0.0 4.0 20 33
+ 1.39792 3 4 tcp 1040 ------- 1 0.0 4.0 20 33
- 1.39792 3 4 tcp 1040 ------- 1 0.0 4.0 20 33
r 1.3996 3 4 tcp 1040 ------- 1 0.0 4.0 18 30
+ 1.3996 4 3 ack 40 ------- 1 4.0 0.0 18 49
- 1.3996 4 3 ack 40 ------- 1 4.0 0.0 18 49
r 1.4016 4 3 ack 40 ------- 1 4.0 0.0 17 48
+ 1.4016 3 2 ack 40 ------- 1 4.0 0.0 17 48
- 1.4016 3 2 ack 40 ------- 1 4.0 0.0 17 48
- 1.40288 0 2 tcp 1040 ------- 1 0.0 4.0 25 40
r 1.4036 3 2 ack 40 ------- 1 4.0 0.0 16 47
+ 1.4036 2 0 ack 40 ------- 1 4.0 0.0 16 47
- 1.4036 2 0 ack 40 ------- 1 4.0 0.0 16 47
r 1.40456 0 2 tcp 1040 ------- 1 0.0 4.0 23 38
+ 1.40456 2 3 tcp 1040 ------- 1 0.0 4.0 23 38
- 1.40456 2 3 tcp 1040 ------- 1 0.0 4.0 23 38
r 1.4056 2 0 ack 40 ------- 1 4.0 0.0 15 44
+ 1.4056 0 2 tcp 1040 ------- 1 0.0 4.0 31 50
+ 1.4056 0 2 tcp 1040 ------- 1 0.0 4.0 32 51
r 1.40624 2 3 tcp 1040 ------- 1 0.0 4.0 21 35
+ 1.40624 3 4 tcp 1040 ------- 1 0.0 4.0 21 35
- 1.40624 3 4 tcp 1040 ------- 1 0.0 4.0 21 35
r 1.40792 3 4 tcp 1040 ------- 1 0.0 4.0 19 32
+ 1.40792 4 3 ack 40 ------- 1 4.0 0.0 19 52
- 1.40792 4 3 ack 40 ------- 1 4.0 0.0 19 52
r 1.40992 4 3 ack 40 ------- 1 4.0 0.0 18 49
+ 1.40992 3 2 ack 40 ------- 1 4.0 0.0 18 49
- 1.40992 3 2 ack 40 ------- 1 4.0 0.0 18 49
- 1.4112 0 2 tcp 1040 ------- 1 0.0 4.0 26 41
r 1.41192 3 2 ack 40 ------- 1 4.0 0.0 17 48
+ 1.41192 2 0 ack 40 ------- 1 4.0 0.0 17 48
- 1.41192 2 0 ack 40 ------- 1 4.0 0.0 17 48
r 1.41288 0 2 tcp 1040 ------- 1 0.0 4.0 24 39
+ 1.41288 2 3 tcp 1040 ------- 1 0.0 4.0 24 39
- 1.41288 2 3 tcp 1040 ------- 1 0.0 4.0 24 39
r 1.41392 2 0 ack 40 ------- 1 4.0 0.0 16 47
+ 1.41392 0 2 tcp 1040 ------- 1 0.0 4.0 33 53
+ 1.41392 0 2 tcp 1040 ------- 1 0.0 4.0 34 54
r 1.41456 2 3 tcp 1040 ------- 1 0.0 4.0 22 36
+ 1.41456 3 4 tcp 1040 ------- 1 0.0 4.0 22 36
- 1.41456 3 4 tcp 1040 ------- 1 0.0 4.0 22 36
r 1.41624 3 4 tcp 1040 ------- 1 0.0 4.0 20 33
+ 1.41624 4 3 ack 40 ------- 1 4.0 0.0 20 55
- 1.41624 4 3 ack 40 ------- 1 4.0 0.0 20 55
r 1.41824 4 3 ack 40 ------- 1 4.0 0.0 19 52
+ 1.41824 3 2 ack 40 ------- 1 4.0 0.0 19 52
- 1.41824 3 2 ack 40 ------- 1 4.0 0.0 19 52
- 1.41952 0 2 tcp 1040 ------- 1 0.0 4.0 27 42
r 1.42024 3 2 ack 40 ------- 1 4.0 0.0 18 49
+ 1.42024 2 0 ack 40 ------- 1 4.0 0.0 18 49
- 1.42024 2 0 ack 40 ------- 1 4.0 0.0 18 49
r 1.4212 0 2 tcp 1040 ------- 1 0.0 4.0 25 40
+ 1.4212 2 3 tcp 1040 ------- 1 0.0 4.0 25 40
- 1.4212 2 3 tcp 1040 ------- 1 0.0 4.0 25 40
r 1.42224 2 0 ack 40 ------- 1 4.0 0.0 17 48
+ 1.42224 0 2 tcp 1040 ------- 1 0.0 4.0 35 56
+ 1.42224 0 2 tcp 1040 ------- 1 0.0 4.0 36 57
r 1.42288 2 3 tcp 1040 ------- 1 0.0 4.0 23 38
+ 1.42288 3 4 tcp 1040 ------- 1 0.0 4.0 23 38
- 1.42288 3 4 tcp 1040 ------- 1 0.0 4.0 23 38
r 1.42456 3 4 tcp 1040 ------- 1 0.0 4.0 21 35
+ 1.42456 4 3 ack 40 ------- 1 4.0 0.0 21 58
- 1.42456 4 3 ack 40 ------- 1 4.0 0.0 21 58
r 1.42656 4 3 ack 40 ------- 1 4.0 0.0 20 55
+ 1.42656 3 2 ack 40 ------- 1 4.0 0.0 20 55
- 1.42656 3 2 ack 40 ------- 1 4.0 0.0 20 55
- 1.42784 0 2 tcp 1040 ------- 1 0.0 4.0 28 43
r 1.42856 3 2 ack 40 ------- 1 4.0 0.0 19 52
+ 1.42856 2 0 ack 40 ------- 1 4.0 0.0 19 52
- 1.42856 2 0 ack 40 ------- 1 4.0 0.0 19 52
r 1.42952 0 2 tcp 1040 ------- 1 0.0 4.0 26 41
+ 1.42952 2 3 tcp 1040 ------- 1 0.0 4.0 26 41
- 1.42952 2 3 tcp 1040 ------- 1 0.0 4.0 26 41
r 1.43056 2 0 ack 40 ------- 1 4.0 0.0 18 49
+ 1.43056 0 2 tcp 1040 ------- 1 0.0 4.0 37 59
+ 1.43056 0 2 tcp 1040 ------- 1 0.0 4.0 38 60
r 1.4312 2 3 tcp 1040 ------- 1 0.0 4.0 24 39
+ 1.4312 3 4 tcp 1040 ------- 1 0.0 4.0 24 39
- 1.4312 3 4 tcp 1040 ------- 1 0.0 4.0 24 39
r 1.43288 3 4 tcp 1040 ------- 1 0.0 4.0 22 36
+ 1.43288 4 3 ack 40 ------- 1 4.0 0.0 22 61
- 1.43288 4 3 ack 40 ------- 1 4.0 0.0 22 61
r 1.43488 4 3 ack 40 ------- 1 4.0 0.0 21 58
+ 1.43488 3 2 ack 40 ------- 1 4.0 0.0 21 58
- 1.43488 3 2 ack 40 ------- 1 4.0 0.0 21 58
- 1.43616 0 2 tcp 1040 ------- 1 0.0 4.0 29 45
r 1.43688 3 2 ack 40 ------- 1 4.0 0.0 20 55
+ 1.43688 2 0 ack 40 ------- 1 4.0 0.0 20 55
- 1.43688 2 0 ack 40 ------- 1 4.0 0.0 20 55
r 1.43784 0 2 tcp 1040 ------- 1 0.0 4.0 27 42
+ 1.43784 2 3 tcp 1040 ------- 1 0.0 4.0 27 42
- 1.43784 2 3 tcp 1040 ------- 1 0.0 4.0 27 42
r 1.43888 2 0 ack 40 ------- 1 4.0 0.0 19 52
+ 1.43888 0 2 tcp 1040 ------- 1 0.0 4.0 39 62
r 1.43952 2 3 tcp 1040 ------- 1 0.0 4.0 25 40
+ 1.43952 3 4 tcp 1040 ------- 1 0.0 4.0 25 40
- 1.43952 3 4 tcp 1040 ------- 1 0.0 4.0 25 40
r 1.4412 3 4 tcp 1040 ------- 1 0.0 4.0 23 38
+ 1.4412 4 3 ack 40 ------- 1 4.0 0.0 23 63
- 1.4412 4 3 ack 40 ------- 1 4.0 0.0 23 63
r 1.4432 4 3 ack 40 ------- 1 4.0 0.0 22 61
+ 1.4432 3 2 ack 40 ------- 1 4.0 0.0 22 61
- 1.4432 3 2 ack 40 ------- 1 4.0 0.0 22 61
- 1.44448 0 2 tcp 1040 ------- 1 0.0 4.0 30 46
r 1.4452 3 2 ack 40 ------- 1 4.0 0.0 21 58
+ 1.4452 2 0 ack 40 ------- 1 4.0 0.0 21 58
- 1.4452 2 0 ack 40 ------- 1 4.0 0.0 21 58
r 1.44616 0 2 tcp 1040 ------- 1 0.0 4.0 28 43
+ 1.44616 2 3 tcp 1040 ------- 1 0.0 4.0 28 43
- 1.44616 2 3 tcp 1040 ------- 1 0.0 4.0 28 43
r 1.4472 2 0 ack 40 ------- 1 4.0 0.0 20 55
+ 1.4472 0 2 tcp 1040 ------- 1 0.0 4.0 40 64
r 1.44784 2 3 tcp 1040 ------- 1 0.0 4.0 26 41
+ 1.44784 3 4 tcp 1040 ------- 1 0.0 4.0 26 41
- 1.44784 3 4 tcp 1040 ------- 1 0.0 4.0 26 41
r 1.44952 3 4 tcp 1040 ------- 1 0.0 4.0 24 39
+ 1.44952 4 3 ack 40 ------- 1 4.0 0.0 24 65
- 1.44952 4 3 ack 40 ------- 1 4.0 0.0 24 65
r 1.45152 4 3 ack 40 ------- 1 4.0 0.0 23 63
+ 1.45152 3 2 ack 40 ------- 1 4.0 0.0 23 63
- 1.45152 3 2 ack 40 ------- 1 4.0 0.0 23 63
- 1.4528 0 2 tcp 1040 ------- 1 0.0 4.0 31 50
r 1.45352 3 2 ack 40 ------- 1 4.0 0.0 22 61
+ 1.45352 2 0 ack 40 ------- 1 4.0 0.0 22 61
- 1.45352 2 0 ack 40 ------- 1 4.0 0.0 22 61
r 1.45448 0 2 tcp 1040 ------- 1 0.0 4.0 29 45
+ 1.45448 2 3 tcp 1040 ------- 1 0.0 4.0 29 45
- 1.45448 2 3 tcp 1040 ------- 1 0.0 4.0 29 45
r 1.45552 2 0 ack 40 ------- 1 4.0 0.0 21 58
+ 1.45552 0 2 tcp 1040 ------- 1 0.0 4.0 41 66
r 1.45616 2 3 tcp 1040 ------- 1 0.0 4.0 27 42
+ 1.45616 3 4 tcp 1040 ------- 1 0.0 4.0 27 42
- 1.45616 3 4 tcp 1040 ------- 1 0.0 4.0 27 42
r 1.45784 3 4 tcp 1040 ------- 1 0.0 4.0 25 40
+ 1.45784 4 3 ack 40 ------- 1 4.0 0.0 25 67
- 1.45784 4 3 ack 40 ------- 1 4.0 0.0 25 67
r 1.45984 4 3 ack 40 ------- 1 4.0 0.0 24 65
+ 1.45984 3 2 ack 40 ------- 1 4.0 0.0 24 65
- 1.45984 3 2 ack 40 ------- 1 4.0 0.0 24 65
- 1.46112 0 2 tcp 1040 ------- 1 0.0 4.0 32 51
r 1.46184 3 2 ack 40 ------- 1 4.0 0.0 23 63
+ 1.46184 2 0 ack 40 ------- 1 4.0 0.0 23 63
- 1.46184 2 0 ack 40 ------- 1 4.0 0.0 23 63
r 1.4628 0 2 tcp 1040 ------- 1 0.0 4.0 30 46
+ 1.4628 2 3 tcp 1040 ------- 1 0.0 4.0 30 46
- 1.4628 2 3 tcp 1040 ------- 1 0.0 4.0 30 46
r 1.46384 2 0 ack 40 ------- 1 4.0 0.0 22 61
+ 1.46384 0 2 tcp 1040 ------- 1 0.0 4.0 42 68
r 1.46448 2 3 tcp 1040 ------- 1 0.0 4.0 28 43
+ 1.46448 3 4 tcp 1040 ------- 1 0.0 4.0 28 43
- 1.46448 3 4 tcp 1040 ------- 1 0.0 4.0 28 43
r 1.46616 3 4 tcp 1040 ------- 1 0.0 4.0 26 41
+ 1.46616 4 3 ack 40 ------- 1 4.0 0.0 26 69
- 1.46616 4 3 ack 40 ------- 1 4.0 0.0 26 69
r 1.46816 4 3 ack 40 ------- 1 4.0 0.0 25 67
+ 1.46816 3 2 ack 40 ------- 1 4.0 0.0 25 67
- 1.46816 3 2 ack 40 ------- 1 4.0 0.0 25 67
- 1.46944 0 2 tcp 1040 ------- 1 0.0 4.0 33 53
r 1.47016 3 2 ack 40 ------- 1 4.0 0.0 24 65
+ 1.47016 2 0 ack 40 ------- 1 4.0 0.0 24 65
- 1.47016 2 0 ack 40 ------- 1 4.0 0.0 24 65
r 1.47112 0 2 tcp 1040 ------- 1 0.0 4.0 31 50
+ 1.47112 2 3 tcp 1040 ------- 1 0.0 4.0 31 50
- 1.47112 2 3 tcp 1040 ------- 1 0.0 4.0 31 50
r 1.47216 2 0 ack 40 ------- 1 4.0 0.0 23 63
+ 1.47216 0 2 tcp 1040 ------- 1 0.0 4.0 43 70
r 1.4728 2 3 tcp 1040 ------- 1 0.0 4.0 29 45
+ 1.4728 3 4 tcp 1040 ------- 1 0.0 4.0 29 45
- 1.4728 3 4 tcp 1040 ------- 1 0.0 4.0 29 45
r 1.47448 3 4 tcp 1040 ------- 1 0.0 4.0 27 42
+ 1.47448 4 3 ack 40 ------- 1 4.0 0.0 27 71
- 1.47448 4 3 ack 40 ------- 1 4.0 0.0 27 71
r 1.47648 4 3 ack 40 ------- 1 4.0 0.0 26 69
+ 1.47648 3 2 ack 40 ------- 1 4.0 0.0 26 69
- 1.47648 3 2 ack 40 ------- 1 4.0 0.0 26 69
- 1.47776 0 2 tcp 1040 ------- 1 0.0 4.0 34 54
r 1.47848 3 2 ack 40 ------- 1 4.0 0.0 25 67
+ 1.47848 2 0 ack 40 ------- 1 4.0 0.0 25 67
- 1.47848 2 0 ack 40 ------- 1 4.0 0.0 25 67
r 1.47944 0 2 tcp 1040 ------- 1 0.0 4.0 32 51
+ 1.47944 2 3 tcp 1040 ------- 1 0.0 4.0 32 51
- 1.47944 2 3 tcp 1040 ------- 1 0.0 4.0 32 51
r 1.48048 2 0 ack 40 ------- 1 4.0 0.0 24 65
+ 1.48048 0 2 tcp 1040 ------- 1 0.0 4.0 44 72
r 1.48112 2 3 tcp 1040 ------- 1 0.0 4.0 30 46
+ 1.48112 3 4 tcp 1040 ------- 1 0.0 4.0 30 46
- 1.48112 3 4 tcp 1040 ------- 1 0.0 4.0 30 46
r 1.4828 3 4 tcp 1040 ------- 1 0.0 4.0 28 43
+ 1.4828 4 3 ack 40 ------- 1 4.0 0.0 28 73
- 1.4828 4 3 ack 40 ------- 1 4.0 0.0 28 73
r 1.4848 4 3 ack 40 ------- 1 4.0 0.0 27 71
+ 1.4848 3 2 ack 40 ------- 1 4.0 0.0 27 71
- 1.4848 3 2 ack 40 ------- 1 4.0 0.0 27 71
- 1.48608 0 2 tcp 1040 ------- 1 0.0 4.0 35 56
r 1.4868 3 2 ack 40 ------- 1 4.0 0.0 26 69
+ 1.4868 2 0 ack 40 ------- 1 4.0 0.0 26 69
- 1.4868 2 0 ack 40 ------- 1 4.0 0.0 26 69
r 1.48776 0 2 tcp 1040 ------- 1 0.0 4.0 33 53
+ 1.48776 2 3 tcp 1040 ------- 1 0.0 4.0 33 53
- 1.48776 2 3 tcp 1040 ------- 1 0.0 4.0 33 53
r 1.4888 2 0 ack 40 ------- 1 4.0 0.0 25 67
+ 1.4888 0 2 tcp 1040 ------- 1 0.0 4.0 45 74
r 1.48944 2 3 tcp 1040 ------- 1 0.0 4.0 31 50
+ 1.48944 3 4 tcp 1040 ------- 1 0.0 4.0 31 50
- 1.48944 3 4 tcp 1040 ------- 1 0.0 4.0 31 50
r 1.49112 3 4 tcp 1040 ------- 1 0.0 4.0 29 45
+ 1.49112 4 3 ack 40 ------- 1 4.0 0.0 29 75
- 1.49112 4 3 ack 40 ------- 1 4.0 0.0 29 75
r 1.49312 4 3 ack 40 ------- 1 4.0 0.0 28 73
+ 1.49312 3 2 ack 40 ------- 1 4.0 0.0 28 73
- 1.49312 3 2 ack 40 ------- 1 4.0 0.0 28 73
- 1.4944 0 2 tcp 1040 ------- 1 0.0 4.0 36 57
r 1.49512 3 2 ack 40 ------- 1 4.0 0.0 27 71
+ 1.49512 2 0 ack 40 ------- 1 4.0 0.0 27 71
- 1.49512 2 0 ack 40 ------- 1 4.0 0.0 27 71
r 1.49608 0 2 tcp 1040 ------- 1 0.0 4.0 34 54
+ 1.49608 2 3 tcp 1040 ------- 1 0.0 4.0 34 54
- 1.49608 2 3 tcp 1040 ------- 1 0.0 4.0 34 54
r 1.49712 2 0 ack 40 ------- 1 4.0 0.0 26 69
+ 1.49712 0 2 tcp 1040 ------- 1 0.0 4.0 46 76
r 1.49776 2 3 tcp 1040 ------- 1 0.0 4.0 32 51
+ 1.49776 3 4 tcp 1040 ------- 1 0.0 4.0 32 51
- 1.49776 3 4 tcp 1040 ------- 1 0.0 4.0 32 51
r 1.49944 3 4 tcp 1040 ------- 1 0.0 4.0 30 46
+ 1.49944 4 3 ack 40 ------- 1 4.0 0.0 30 77
- 1.49944 4 3 ack 40 ------- 1 4.0 0.0 30 77
r 1.50144 4 3 ack 40 ------- 1 4.0 0.0 29 75
+ 1.50144 3 2 ack 40 ------- 1 4.0 0.0 29 75
- 1.50144 3 2 ack 40 ------- 1 4.0 0.0 29 75
- 1.50272 0 2 tcp 1040 ------- 1 0.0 4.0 37 59
r 1.50344 3 2 ack 40 ------- 1 4.0 0.0 28 73
+ 1.50344 2 0 ack 40 ------- 1 4.0 0.0 28 73
- 1.50344 2 0 ack 40 ------- 1 4.0 0.0 28 73
r 1.5044 0 2 tcp 1040 ------- 1 0.0 4.0 35 56
+ 1.5044 2 3 tcp 1040 ------- 1 0.0 4.0 35 56
- 1.5044 2 3 tcp 1040 ------- 1 0.0 4.0 35 56
r 1.50544 2 0 ack 40 ------- 1 4.0 0.0 27 71
+ 1.50544 0 2 tcp 1040 ------- 1 0.0 4.0 47 78
r 1.50608 2 3 tcp 1040 ------- 1 0.0 4.0 33 53
+ 1.50608 3 4 tcp 1040 ------- 1 0.0 4.0 33 53
- 1.50608 3 4 tcp 1040 ------- 1 0.0 4.0 33 53
r 1.50776 3 4 tcp 1040 ------- 1 0.0 4.0 31 50
+ 1.50776 4 3 ack 40 ------- 1 4.0 0.0 31 79
- 1.50776 4 3 ack 40 ------- 1 4.0 0.0 31 79
r 1.50976 4 3 ack 40 ------- 1 4.0 0.0 30 77
+ 1.50976 3 2 ack 40 ------- 1 4.0 0.0 30 77
- 1.50976 3 2 ack 40 ------- 1 4.0 0.0 30 77
- 1.51104 0 2 tcp 1040 ------- 1 0.0 4.0 38 60
r 1.51176 3 2 ack 40 ------- 1 4.0 0.0 29 75
+ 1.51176 2 0 ack 40 ------- 1 4.0 0.0 29 75
- 1.51176 2 0 ack 40 ------- 1 4.0 0.0 29 75
r 1.51272 0 2 tcp 1040 ------- 1 0.0 4.0 36 57
+ 1.51272 2 3 tcp 1040 ------- 1 0.0 4.0 36 57
- 1.51272 2 3 tcp 1040 ------- 1 0.0 4.0 36 57
r 1.51376 2 0 ack 40 ------- 1 4.0 0.0 28 73
+ 1.51376 0 2 tcp 1040 ------- 1 0.0 4.0 48 80
r 1.5144 2 3 tcp 1040 ------- 1 0.0 4.0 34 54
+ 1.5144 3 4 tcp 1040 ------- 1 0.0 4.0 34 54
- 1.5144 3 4 tcp 1040 ------- 1 0.0 4.0 34 54
r 1.51608 3 4 tcp 1040 ------- 1 0.0 4.0 32 51
+ 1.51608 4 3 ack 40 ------- 1 4.0 0.0 32 81
- 1.51608 4 3 ack 40 ------- 1 4.0 0.0 32 81
r 1.51808 4 3 ack 40 ------- 1 4.0 0.0 31 79
+ 1.51808 3 2 ack 40 ------- 1 4.0 0.0 31 79
- 1.51808 3 2 ack 40 ------- 1 4.0 0.0 31 79
- 1.51936 0 2 tcp 1040 ------- 1 0.0 4.0 39 62
r 1.52008 3 2 ack 40 ------- 1 4.0 0.0 30 77
+ 1.52008 2 0 ack 40 ------- 1 4.0 0.0 30 77
- 1.52008 2 0 ack 40 ------- 1 4.0 0.0 30 77
r 1.52104 0 2 tcp 1040 ------- 1 0.0 4.0 37 59
+ 1.52104 2 3 tcp 1040 ------- 1 0.0 4.0 37 59
- 1.52104 2 3 tcp 1040 ------- 1 0.0 4.0 37 59
r 1.52208 2 0 ack 40 ------- 1 4.0 0.0 29 75
+ 1.52208 0 2 tcp 1040 ------- 1 0.0 4.0 49 82
r 1.52272 2 3 tcp 1040 ------- 1 0.0 4.0 35 56
+ 1.52272 3 4 tcp 1040 ------- 1 0.0 4.0 35 56
- 1.52272 3 4 tcp 1040 ------- 1 0.0 4.0 35 56
r 1.5244 3 4 tcp 1040 ------- 1 0.0 4.0 33 53
+ 1.5244 4 3 ack 40 ------- 1 4.0 0.0 33 83
- 1.5244 4 3 ack 40 ------- 1 4.0 0.0 33 83
r 1.5264 4 3 ack 40 ------- 1 4.0 0.0 32 81
+ 1.5264 3 2 ack 40 ------- 1 4.0 0.0 32 81
- 1.5264 3 2 ack 40 ------- 1 4.0 0.0 32 81
- 1.52768 0 2 tcp 1040 ------- 1 0.0 4.0 40 64
r 1.5284 3 2 ack 40 ------- 1 4.0 0.0 31 79
+ 1.5284 2 0 ack 40 ------- 1 4.0 0.0 31 79
- 1.5284 2 0 ack 40 ------- 1 4.0 0.0 31 79
r 1.52936 0 2 tcp 1040 ------- 1 0.0 4.0 38 60
+ 1.52936 2 3 tcp 1040 ------- 1 0.0 4.0 38 60
- 1.52936 2 3 tcp 1040 ------- 1 0.0 4.0 38 60
r 1.5304 2 0 ack 40 ------- 1 4.0 0.0 30 77
+ 1.5304 0 2 tcp 1040 ------- 1 0.0 4.0 50 84
r 1.53104 2 3 tcp 1040 ------- 1 0.0 4.0 36 57
+ 1.53104 3 4 tcp 1040 ------- 1 0.0 4.0 36 57
- 1.53104 3 4 tcp 1040 ------- 1 0.0 4.0 36 57
r 1.53272 3 4 tcp 1040 ------- 1 0.0 4.0 34 54
+ 1.53272 4 3 ack 40 ------- 1 4.0 0.0 34 85
- 1.53272 4 3 ack 40 ------- 1 4.0 0.0 34 85
r 1.53472 4 3 ack 40 ------- 1 4.0 0.0 33 83
+ 1.53472 3 2 ack 40 ------- 1 4.0 0.0 33 83
- 1.53472 3 2 ack 40 ------- 1 4.0 0.0 33 83
- 1.536 0 2 tcp 1040 ------- 1 0.0 4.0 41 66
r 1.53672 3 2 ack 40 ------- 1 4.0 0.0 32 81
+ 1.53672 2 0 ack 40 ------- 1 4.0 0.0 32 81
- 1.53672 2 0 ack 40 ------- 1 4.0 0.0 32 81
r 1.53768 0 2 tcp 1040 ------- 1 0.0 4.0 39 62
+ 1.53768 2 3 tcp 1040 ------- 1 0.0 4.0 39 62