+ 1 0 2 cbr 500 ------- 1 0.0 4.0 0 0
- 1 0 2 cbr 500 ------- 1 0.0 4.0 0 0
+ 1.005 0 2 cbr 500 ------- 1 0.0 4.0 1 1
- 1.005 0 2 cbr 500 ------- 1 0.0 4.0 1 1
+ 1.01 0 2 cbr 500 ------- 1 0.0 4.0 2 2
- 1.01 0 2 cbr 500 ------- 1 0.0 4.0 2 2
r 1.014 0 2 cbr 500 ------- 1 0.0 4.0 0 0
+ 1.014 2 3 cbr 500 ------- 1 0.0 4.0 0 0
- 1.014 2 3 cbr 500 ------- 1 0.0 4.0 0 0
+ 1.015 0 2 cbr 500 ------- 1 0.0 4.0 3 3
- 1.015 0 2 cbr 500 ------- 1 0.0 4.0 3 3
r 1.019 0 2 cbr 500 ------- 1 0.0 4.0 1 1
+ 1.019 2 3 cbr 500 ------- 1 0.0 4.0 1 1
- 1.019 2 3 cbr 500 ------- 1 0.0 4.0 1 1
+ 1.02 0 2 cbr 500 ------- 1 0.0 4.0 4 4
- 1.02 0 2 cbr 500 ------- 1 0.0 4.0 4 4
r 1.024 0 2 cbr 500 ------- 1 0.0 4.0 2 2
+ 1.024 2 3 cbr 500 ------- 1 0.0 4.0 2 2
- 1.024 2 3 cbr 500 ------- 1 0.0 4.0 2 2
+ 1.025 0 2 cbr 500 ------- 1 0.0 4.0 5 5
- 1.025 0 2 cbr 500 ------- 1 0.0 4.0 5 5
r 1.028 2 3 cbr 500 ------- 1 0.0 4.0 0 0
+ 1.028 3 4 cbr 500 ------- 1 0.0 4.0 0 0
- 1.028 3 4 cbr 500 ------- 1 0.0 4.0 0 0
r 1.029 0 2 cbr 500 ------- 1 0.0 4.0 3 3
+ 1.029 2 3 cbr 500 ------- 1 0.0 4.0 3 3
- 1.029 2 3 cbr 500 ------- 1 0.0 4.0 3 3
+ 1.03 0 2 cbr 500 ------- 1 0.0 4.0 6 6
- 1.03 0 2 cbr 500 ------- 1 0.0 4.0 6 6
r 1.033 2 3 cbr 500 ------- 1 0.0 4.0 1 1
+ 1.033 3 4 cbr 500 ------- 1 0.0 4.0 1 1
- 1.033 3 4 cbr 500 ------- 1 0.0 4.0 1 1
r 1.034 0 2 cbr 500 ------- 1 0.0 4.0 4 4
+ 1.034 2 3 cbr 500 ------- 1 0.0 4.0 4 4
- 1.034 2 3 cbr 500 ------- 1 0.0 4.0 4 4
+ 1.035 0 2 cbr 500 ------- 1 0.0 4.0 7 7
- 1.035 0 2 cbr 500 ------- 1 0.0 4.0 7 7
r 1.038 2 3 cbr 500 ------- 1 0.0 4.0 2 2
+ 1.038 3 4 cbr 500 ------- 1 0.0 4.0 2 2
- 1.038 3 4 cbr 500 ------- 1 0.0 4.0 2 2
r 1.039 0 2 cbr 500 ------- 1 0.0 4.0 5 5
+ 1.039 2 3 cbr 500 ------- 1 0.0 4.0 5 5
- 1.039 2 3 cbr 500 ------- 1 0.0 4.0 5 5
+ 1.04 0 2 cbr 500 ------- 1 0.0 4.0 8 8
- 1.04 0 2 cbr 500 ------- 1 0.0 4.0 8 8
r 1.042 3 4 cbr 500 ------- 1 0.0 4.0 0 0
r 1.043 2 3 cbr 500 ------- 1 0.0 4.0 3 3
+ 1.043 3 4 cbr 500 ------- 1 0.0 4.0 3 3
- 1.043 3 4 cbr 500 ------- 1 0.0 4.0 3 3
r 1.044 0 2 cbr 500 ------- 1 0.0 4.0 6 6
+ 1.044 2 3 cbr 500 ------- 1 0.0 4.0 6 6
- 1.044 2 3 cbr 500 ------- 1 0.0 4.0 6 6
+ 1.045 0 2 cbr 500 ------- 1 0.0 4.0 9 9
- 1.045 0 2 cbr 500 ------- 1 0.0 4.0 9 9
r 1.047 3 4 cbr 500 ------- 1 0.0 4.0 1 1
r 1.048 2 3 cbr 500 ------- 1 0.0 4.0 4 4
+ 1.048 3 4 cbr 500 ------- 1 0.0 4.0 4 4
- 1.048 3 4 cbr 500 ------- 1 0.0 4.0 4 4
r 1.049 0 2 cbr 500 ------- 1 0.0 4.0 7 7
+ 1.049 2 3 cbr 500 ------- 1 0.0 4.0 7 7
- 1.049 2 3 cbr 500 ------- 1 0.0 4.0 7 7
+ 1.05 0 2 cbr 500 ------- 1 0.0 4.0 10 10
- 1.05 0 2 cbr 500 ------- 1 0.0 4.0 10 10
r 1.052 3 4 cbr 500 ------- 1 0.0 4.0 2 2
r 1.053 2 3 cbr 500 ------- 1 0.0 4.0 5 5
+ 1.053 3 4 cbr 500 ------- 1 0.0 4.0 5 5
- 1.053 3 4 cbr 500 ------- 1 0.0 4.0 5 5
r 1.054 0 2 cbr 500 ------- 1 0.0 4.0 8 8
+ 1.054 2 3 cbr 500 ------- 1 0.0 4.0 8 8
- 1.054 2 3 cbr 500 ------- 1 0.0 4.0 8 8
+ 1.055 0 2 cbr 500 ------- 1 0.0 4.0 11 11
- 1.055 0 2 cbr 500 ------- 1 0.0 4.0 11 11
r 1.057 3 4 cbr 500 ------- 1 0.0 4.0 3 3
r 1.058 2 3 cbr 500 ------- 1 0.0 4.0 6 6
+ 1.058 3 4 cbr 500 ------- 1 0.0 4.0 6 6
- 1.058 3 4 cbr 500 ------- 1 0.0 4.0 6 6
r 1.059 0 2 cbr 500 ------- 1 0.0 4.0 9 9
+ 1.059 2 3 cbr 500 ------- 1 0.0 4.0 9 9
- 1.059 2 3 cbr 500 ------- 1 0.0 4.0 9 9
+ 1.06 0 2 cbr 500 ------- 1 0.0 4.0 12 12
- 1.06 0 2 cbr 500 ------- 1 0.0 4.0 12 12
r 1.062 3 4 cbr 500 ------- 1 0.0 4.0 4 4
r 1.063 2 3 cbr 500 ------- 1 0.0 4.0 7 7
+ 1.063 3 4 cbr 500 ------- 1 0.0 4.0 7 7
- 1.063 3 4 cbr 500 ------- 1 0.0 4.0 7 7
r 1.064 0 2 cbr 500 ------- 1 0.0 4.0 10 10
+ 1.064 2 3 cbr 500 ------- 1 0.0 4.0 10 10
- 1.064 2 3 cbr 500 ------- 1 0.0 4.0 10 10
+ 1.065 0 2 cbr 500 ------- 1 0.0 4.0 13 13
- 1.065 0 2 cbr 500 ------- 1 0.0 4.0 13 13
r 1.067 3 4 cbr 500 ------- 1 0.0 4.0 5 5
r 1.068 2 3 cbr 500 ------- 1 0.0 4.0 8 8
+ 1.068 3 4 cbr 500 ------- 1 0.0 4.0 8 8
- 1.068 3 4 cbr 500 ------- 1 0.0 4.0 8 8
r 1.069 0 2 cbr 500 ------- 1 0.0 4.0 11 11
+ 1.069 2 3 cbr 500 ------- 1 0.0 4.0 11 11
- 1.069 2 3 cbr 500 ------- 1 0.0 4.0 11 11
+ 1.07 0 2 cbr 500 ------- 1 0.0 4.0 14 14
- 1.07 0 2 cbr 500 ------- 1 0.0 4.0 14 14
r 1.072 3 4 cbr 500 ------- 1 0.0 4.0 6 6
r 1.073 2 3 cbr 500 ------- 1 0.0 4.0 9 9
+ 1.073 3 4 cbr 500 ------- 1 0.0 4.0 9 9
- 1.073 3 4 cbr 500 ------- 1 0.0 4.0 9 9
r 1.074 0 2 cbr 500 ------- 1 0.0 4.0 12 12
+ 1.074 2 3 cbr 500 ------- 1 0.0 4.0 12 12
- 1.074 2 3 cbr 500 ------- 1 0.0 4.0 12 12
+ 1.075 0 2 cbr 500 ------- 1 0.0 4.0 15 15
- 1.075 0 2 cbr 500 ------- 1 0.0 4.0 15 15
r 1.077 3 4 cbr 500 ------- 1 0.0 4.0 7 7
r 1.078 2 3 cbr 500 ------- 1 0.0 4.0 10 10
+ 1.078 3 4 cbr 500 ------- 1 0.0 4.0 10 10
- 1.078 3 4 cbr 500 ------- 1 0.0 4.0 10 10
r 1.079 0 2 cbr 500 ------- 1 0.0 4.0 13 13
+ 1.079 2 3 cbr 500 ------- 1 0.0 4.0 13 13
- 1.079 2 3 cbr 500 ------- 1 0.0 4.0 13 13
+ 1.08 0 2 cbr 500 ------- 1 0.0 4.0 16 16
- 1.08 0 2 cbr 500 ------- 1 0.0 4.0 16 16
r 1.082 3 4 cbr 500 ------- 1 0.0 4.0 8 8
r 1.083 2 3 cbr 500 ------- 1 0.0 4.0 11 11
+ 1.083 3 4 cbr 500 ------- 1 0.0 4.0 11 11
- 1.083 3 4 cbr 500 ------- 1 0.0 4.0 11 11
r 1.084 0 2 cbr 500 ------- 1 0.0 4.0 14 14
+ 1.084 2 3 cbr 500 ------- 1 0.0 4.0 14 14
- 1.084 2 3 cbr 500 ------- 1 0.0 4.0 14 14
+ 1.085 0 2 cbr 500 ------- 1 0.0 4.0 17 17
- 1.085 0 2 cbr 500 ------- 1 0.0 4.0 17 17
r 1.087 3 4 cbr 500 ------- 1 0.0 4.0 9 9
r 1.088 2 3 cbr 500 ------- 1 0.0 4.0 12 12
+ 1.088 3 4 cbr 500 ------- 1 0.0 4.0 12 12
- 1.088 3 4 cbr 500 ------- 1 0.0 4.0 12 12
r 1.089 0 2 cbr 500 ------- 1 0.0 4.0 15 15
+ 1.089 2 3 cbr 500 ------- 1 0.0 4.0 15 15
- 1.089 2 3 cbr 500 ------- 1 0.0 4.0 15 15
+ 1.09 0 2 cbr 500 ------- 1 0.0 4.0 18 18
- 1.09 0 2 cbr 500 ------- 1 0.0 4.0 18 18
r 1.092 3 4 cbr 500 ------- 1 0.0 4.0 10 10
r 1.093 2 3 cbr 500 ------- 1 0.0 4.0 13 13
+ 1.093 3 4 cbr 500 ------- 1 0.0 4.0 13 13
- 1.093 3 4 cbr 500 ------- 1 0.0 4.0 13 13
r 1.094 0 2 cbr 500 ------- 1 0.0 4.0 16 16
+ 1.094 2 3 cbr 500 ------- 1 0.0 4.0 16 16
- 1.094 2 3 cbr 500 ------- 1 0.0 4.0 16 16
+ 1.095 0 2 cbr 500 ------- 1 0.0 4.0 19 19
- 1.095 0 2 cbr 500 ------- 1 0.0 4.0 19 19
r 1.097 3 4 cbr 500 ------- 1 0.0 4.0 11 11
r 1.098 2 3 cbr 500 ------- 1 0.0 4.0 14 14
+ 1.098 3 4 cbr 500 ------- 1 0.0 4.0 14 14
- 1.098 3 4 cbr 500 ------- 1 0.0 4.0 14 14
r 1.099 0 2 cbr 500 ------- 1 0.0 4.0 17 17
+ 1.099 2 3 cbr 500 ------- 1 0.0 4.0 17 17
- 1.099 2 3 cbr 500 ------- 1 0.0 4.0 17 17
+ 1.1 0 2 cbr 500 ------- 1 0.0 4.0 20 20
- 1.1 0 2 cbr 500 ------- 1 0.0 4.0 20 20
r 1.102 3 4 cbr 500 ------- 1 0.0 4.0 12 12
r 1.103 2 3 cbr 500 ------- 1 0.0 4.0 15 15
+ 1.103 3 4 cbr 500 ------- 1 0.0 4.0 15 15
- 1.103 3 4 cbr 500 ------- 1 0.0 4.0 15 15
r 1.104 0 2 cbr 500 ------- 1 0.0 4.0 18 18
+ 1.104 2 3 cbr 500 ------- 1 0.0 4.0 18 18
- 1.104 2 3 cbr 500 ------- 1 0.0 4.0 18 18
+ 1.105 0 2 cbr 500 ------- 1 0.0 4.0 21 21
- 1.105 0 2 cbr 500 ------- 1 0.0 4.0 21 21
r 1.107 3 4 cbr 500 ------- 1 0.0 4.0 13 13
r 1.108 2 3 cbr 500 ------- 1 0.0 4.0 16 16
+ 1.108 3 4 cbr 500 ------- 1 0.0 4.0 16 16
- 1.108 3 4 cbr 500 ------- 1 0.0 4.0 16 16
r 1.109 0 2 cbr 500 ------- 1 0.0 4.0 19 19
+ 1.109 2 3 cbr 500 ------- 1 0.0 4.0 19 19
- 1.109 2 3 cbr 500 ------- 1 0.0 4.0 19 19
+ 1.11 0 2 cbr 500 ------- 1 0.0 4.0 22 22
- 1.11 0 2 cbr 500 ------- 1 0.0 4.0 22 22
r 1.112 3 4 cbr 500 ------- 1 0.0 4.0 14 14
r 1.113 2 3 cbr 500 ------- 1 0.0 4.0 17 17
+ 1.113 3 4 cbr 500 ------- 1 0.0 4.0 17 17
- 1.113 3 4 cbr 500 ------- 1 0.0 4.0 17 17
r 1.114 0 2 cbr 500 ------- 1 0.0 4.0 20 20
+ 1.114 2 3 cbr 500 ------- 1 0.0 4.0 20 20
- 1.114 2 3 cbr 500 ------- 1 0.0 4.0 20 20
+ 1.115 0 2 cbr 500 ------- 1 0.0 4.0 23 23
- 1.115 0 2 cbr 500 ------- 1 0.0 4.0 23 23
r 1.117 3 4 cbr 500 ------- 1 0.0 4.0 15 15
r 1.118 2 3 cbr 500 ------- 1 0.0 4.0 18 18
+ 1.118 3 4 cbr 500 ------- 1 0.0 4.0 18 18
- 1.118 3 4 cbr 500 ------- 1 0.0 4.0 18 18
r 1.119 0 2 cbr 500 ------- 1 0.0 4.0 21 21
+ 1.119 2 3 cbr 500 ------- 1 0.0 4.0 21 21
- 1.119 2 3 cbr 500 ------- 1 0.0 4.0 21 21
+ 1.12 0 2 cbr 500 ------- 1 0.0 4.0 24 24
- 1.12 0 2 cbr 500 ------- 1 0.0 4.0 24 24
r 1.122 3 4 cbr 500 ------- 1 0.0 4.0 16 16
r 1.123 2 3 cbr 500 ------- 1 0.0 4.0 19 19
+ 1.123 3 4 cbr 500 ------- 1 0.0 4.0 19 19
- 1.123 3 4 cbr 500 ------- 1 0.0 4.0 19 19
r 1.124 0 2 cbr 500 ------- 1 0.0 4.0 22 22
+ 1.124 2 3 cbr 500 ------- 1 0.0 4.0 22 22
- 1.124 2 3 cbr 500 ------- 1 0.0 4.0 22 22
+ 1.125 0 2 cbr 500 ------- 1 0.0 4.0 25 25
- 1.125 0 2 cbr 500 ------- 1 0.0 4.0 25 25
r 1.127 3 4 cbr 500 ------- 1 0.0 4.0 17 17
r 1.128 2 3 cbr 500 ------- 1 0.0 4.0 20 20
+ 1.128 3 4 cbr 500 ------- 1 0.0 4.0 20 20
- 1.128 3 4 cbr 500 ------- 1 0.0 4.0 20 20
r 1.129 0 2 cbr 500 ------- 1 0.0 4.0 23 23
+ 1.129 2 3 cbr 500 ------- 1 0.0 4.0 23 23
- 1.129 2 3 cbr 500 ------- 1 0.0 4.0 23 23
+ 1.13 0 2 cbr 500 ------- 1 0.0 4.0 26 26
- 1.13 0 2 cbr 500 ------- 1 0.0 4.0 26 26
r 1.132 3 4 cbr 500 ------- 1 0.0 4.0 18 18
r 1.133 2 3 cbr 500 ------- 1 0.0 4.0 21 21
+ 1.133 3 4 cbr 500 ------- 1 0.0 4.0 21 21
- 1.133 3 4 cbr 500 ------- 1 0.0 4.0 21 21
r 1.134 0 2 cbr 500 ------- 1 0.0 4.0 24 24
+ 1.134 2 3 cbr 500 ------- 1 0.0 4.0 24 24
- 1.134 2 3 cbr 500 ------- 1 0.0 4.0 24 24
+ 1.135 0 2 cbr 500 ------- 1 0.0 4.0 27 27
- 1.135 0 2 cbr 500 ------- 1 0.0 4.0 27 27
r 1.137 3 4 cbr 500 ------- 1 0.0 4.0 19 19
r 1.138 2 3 cbr 500 ------- 1 0.0 4.0 22 22
+ 1.138 3 4 cbr 500 ------- 1 0.0 4.0 22 22
- 1.138 3 4 cbr 500 ------- 1 0.0 4.0 22 22
r 1.139 0 2 cbr 500 ------- 1 0.0 4.0 25 25
+ 1.139 2 3 cbr 500 ------- 1 0.0 4.0 25 25
- 1.139 2 3 cbr 500 ------- 1 0.0 4.0 25 25
+ 1.14 0 2 cbr 500 ------- 1 0.0 4.0 28 28
- 1.14 0 2 cbr 500 ------- 1 0.0 4.0 28 28
r 1.142 3 4 cbr 500 ------- 1 0.0 4.0 20 20
r 1.143 2 3 cbr 500 ------- 1 0.0 4.0 23 23
+ 1.143 3 4 cbr 500 ------- 1 0.0 4.0 23 23
- 1.143 3 4 cbr 500 ------- 1 0.0 4.0 23 23
r 1.144 0 2 cbr 500 ------- 1 0.0 4.0 26 26
+ 1.144 2 3 cbr 500 ------- 1 0.0 4.0 26 26
- 1.144 2 3 cbr 500 ------- 1 0.0 4.0 26 26
+ 1.145 0 2 cbr 500 ------- 1 0.0 4.0 29 29
- 1.145 0 2 cbr 500 ------- 1 0.0 4.0 29 29
r 1.147 3 4 cbr 500 ------- 1 0.0 4.0 21 21
r 1.148 2 3 cbr 500 ------- 1 0.0 4.0 24 24
+ 1.148 3 4 cbr 500 ------- 1 0.0 4.0 24 24
- 1.148 3 4 cbr 500 ------- 1 0.0 4.0 24 24
r 1.149 0 2 cbr 500 ------- 1 0.0 4.0 27 27
+ 1.149 2 3 cbr 500 ------- 1 0.0 4.0 27 27
- 1.149 2 3 cbr 500 ------- 1 0.0 4.0 27 27
+ 1.15 0 2 cbr 500 ------- 1 0.0 4.0 30 30
- 1.15 0 2 cbr 500 ------- 1 0.0 4.0 30 30
r 1.152 3 4 cbr 500 ------- 1 0.0 4.0 22 22
r 1.153 2 3 cbr 500 ------- 1 0.0 4.0 25 25
+ 1.153 3 4 cbr 500 ------- 1 0.0 4.0 25 25
- 1.153 3 4 cbr 500 ------- 1 0.0 4.0 25 25
r 1.154 0 2 cbr 500 ------- 1 0.0 4.0 28 28
+ 1.154 2 3 cbr 500 ------- 1 0.0 4.0 28 28
- 1.154 2 3 cbr 500 ------- 1 0.0 4.0 28 28
+ 1.155 0 2 cbr 500 ------- 1 0.0 4.0 31 31
- 1.155 0 2 cbr 500 ------- 1 0.0 4.0 31 31
r 1.157 3 4 cbr 500 ------- 1 0.0 4.0 23 23
r 1.158 2 3 cbr 500 ------- 1 0.0 4.0 26 26
+ 1.158 3 4 cbr 500 ------- 1 0.0 4.0 26 26
- 1.158 3 4 cbr 500 ------- 1 0.0 4.0 26 26
r 1.159 0 2 cbr 500 ------- 1 0.0 4.0 29 29
+ 1.159 2 3 cbr 500 ------- 1 0.0 4.0 29 29
- 1.159 2 3 cbr 500 ------- 1 0.0 4.0 29 29
+ 1.16 0 2 cbr 500 ------- 1 0.0 4.0 32 32
- 1.16 0 2 cbr 500 ------- 1 0.0 4.0 32 32
r 1.162 3 4 cbr 500 ------- 1 0.0 4.0 24 24
r 1.163 2 3 cbr 500 ------- 1 0.0 4.0 27 27
+ 1.163 3 4 cbr 500 ------- 1 0.0 4.0 27 27
- 1.163 3 4 cbr 500 ------- 1 0.0 4.0 27 27
r 1.164 0 2 cbr 500 ------- 1 0.0 4.0 30 30
+ 1.164 2 3 cbr 500 ------- 1 0.0 4.0 30 30
- 1.164 2 3 cbr 500 ------- 1 0.0 4.0 30 30
+ 1.165 0 2 cbr 500 ------- 1 0.0 4.0 33 33
- 1.165 0 2 cbr 500 ------- 1 0.0 4.0 33 33
r 1.167 3 4 cbr 500 ------- 1 0.0 4.0 25 25
r 1.168 2 3 cbr 500 ------- 1 0.0 4.0 28 28
+ 1.168 3 4 cbr 500 ------- 1 0.0 4.0 28 28
- 1.168 3 4 cbr 500 ------- 1 0.0 4.0 28 28
r 1.169 0 2 cbr 500 ------- 1 0.0 4.0 31 31
+ 1.169 2 3 cbr 500 ------- 1 0.0 4.0 31 31
- 1.169 2 3 cbr 500 ------- 1 0.0 4.0 31 31
+ 1.17 0 2 cbr 500 ------- 1 0.0 4.0 34 34
- 1.17 0 2 cbr 500 ------- 1 0.0 4.0 34 34
r 1.172 3 4 cbr 500 ------- 1 0.0 4.0 26 26
r 1.173 2 3 cbr 500 ------- 1 0.0 4.0 29 29
+ 1.173 3 4 cbr 500 ------- 1 0.0 4.0 29 29
- 1.173 3 4 cbr 500 ------- 1 0.0 4.0 29 29
r 1.174 0 2 cbr 500 ------- 1 0.0 4.0 32 32
+ 1.174 2 3 cbr 500 ------- 1 0.0 4.0 32 32
- 1.174 2 3 cbr 500 ------- 1 0.0 4.0 32 32
+ 1.175 0 2 cbr 500 ------- 1 0.0 4.0 35 35
- 1.175 0 2 cbr 500 ------- 1 0.0 4.0 35 35
r 1.177 3 4 cbr 500 ------- 1 0.0 4.0 27 27
r 1.178 2 3 cbr 500 ------- 1 0.0 4.0 30 30
+ 1.178 3 4 cbr 500 ------- 1 0.0 4.0 30 30
- 1.178 3 4 cbr 500 ------- 1 0.0 4.0 30 30
r 1.179 0 2 cbr 500 ------- 1 0.0 4.0 33 33
+ 1.179 2 3 cbr 500 ------- 1 0.0 4.0 33 33
- 1.179 2 3 cbr 500 ------- 1 0.0 4.0 33 33
+ 1.18 0 2 cbr 500 ------- 1 0.0 4.0 36 36
- 1.18 0 2 cbr 500 ------- 1 0.0 4.0 36 36
r 1.182 3 4 cbr 500 ------- 1 0.0 4.0 28 28
r 1.183 2 3 cbr 500 ------- 1 0.0 4.0 31 31
+ 1.183 3 4 cbr 500 ------- 1 0.0 4.0 31 31
- 1.183 3 4 cbr 500 ------- 1 0.0 4.0 31 31
r 1.184 0 2 cbr 500 ------- 1 0.0 4.0 34 34
+ 1.184 2 3 cbr 500 ------- 1 0.0 4.0 34 34
- 1.184 2 3 cbr 500 ------- 1 0.0 4.0 34 34
+ 1.185 0 2 cbr 500 ------- 1 0.0 4.0 37 37
- 1.185 0 2 cbr 500 ------- 1 0.0 4.0 37 37
r 1.187 3 4 cbr 500 ------- 1 0.0 4.0 29 29
r 1.188 2 3 cbr 500 ------- 1 0.0 4.0 32 32
+ 1.188 3 4 cbr 500 ------- 1 0.0 4.0 32 32
- 1.188 3 4 cbr 500 ------- 1 0.0 4.0 32 32
r 1.189 0 2 cbr 500 ------- 1 0.0 4.0 35 35
+ 1.189 2 3 cbr 500 ------- 1 0.0 4.0 35 35
- 1.189 2 3 cbr 500 ------- 1 0.0 4.0 35 35
+ 1.19 0 2 cbr 500 ------- 1 0.0 4.0 38 38
- 1.19 0 2 cbr 500 ------- 1 0.0 4.0 38 38
r 1.192 3 4 cbr 500 ------- 1 0.0 4.0 30 30
r 1.193 2 3 cbr 500 ------- 1 0.0 4.0 33 33
+ 1.193 3 4 cbr 500 ------- 1 0.0 4.0 33 33
- 1.193 3 4 cbr 500 ------- 1 0.0 4.0 33 33
r 1.194 0 2 cbr 500 ------- 1 0.0 4.0 36 36
+ 1.194 2 3 cbr 500 ------- 1 0.0 4.0 36 36
- 1.194 2 3 cbr 500 ------- 1 0.0 4.0 36 36
+ 1.195 0 2 cbr 500 ------- 1 0.0 4.0 39 39
- 1.195 0 2 cbr 500 ------- 1 0.0 4.0 39 39
r 1.197 3 4 cbr 500 ------- 1 0.0 4.0 31 31
r 1.198 2 3 cbr 500 ------- 1 0.0 4.0 34 34
+ 1.198 3 4 cbr 500 ------- 1 0.0 4.0 34 34
- 1.198 3 4 cbr 500 ------- 1 0.0 4.0 34 34
r 1.199 0 2 cbr 500 ------- 1 0.0 4.0 37 37
+ 1.199 2 3 cbr 500 ------- 1 0.0 4.0 37 37
- 1.199 2 3 cbr 500 ------- 1 0.0 4.0 37 37
+ 1.2 0 2 cbr 500 ------- 1 0.0 4.0 40 40
- 1.2 0 2 cbr 500 ------- 1 0.0 4.0 40 40
r 1.202 3 4 cbr 500 ------- 1 0.0 4.0 32 32
r 1.203 2 3 cbr 500 ------- 1 0.0 4.0 35 35
+ 1.203 3 4 cbr 500 ------- 1 0.0 4.0 35 35
- 1.203 3 4 cbr 500 ------- 1 0.0 4.0 35 35
r 1.204 0 2 cbr 500 ------- 1 0.0 4.0 38 38
+ 1.204 2 3 cbr 500 ------- 1 0.0 4.0 38 38
- 1.204 2 3 cbr 500 ------- 1 0.0 4.0 38 38
+ 1.205 0 2 cbr 500 ------- 1 0.0 4.0 41 41
- 1.205 0 2 cbr 500 ------- 1 0.0 4.0 41 41
r 1.207 3 4 cbr 500 ------- 1 0.0 4.0 33 33
r 1.208 2 3 cbr 500 ------- 1 0.0 4.0 36 36
+ 1.208 3 4 cbr 500 ------- 1 0.0 4.0 36 36
- 1.208 3 4 cbr 500 ------- 1 0.0 4.0 36 36
r 1.209 0 2 cbr 500 ------- 1 0.0 4.0 39 39
+ 1.209 2 3 cbr 500 ------- 1 0.0 4.0 39 39
- 1.209 2 3 cbr 500 ------- 1 0.0 4.0 39 39
+ 1.21 0 2 cbr 500 ------- 1 0.0 4.0 42 42
- 1.21 0 2 cbr 500 ------- 1 0.0 4.0 42 42
r 1.212 3 4 cbr 500 ------- 1 0.0 4.0 34 34
r 1.213 2 3 cbr 500 ------- 1 0.0 4.0 37 37
+ 1.213 3 4 cbr 500 ------- 1 0.0 4.0 37 37
- 1.213 3 4 cbr 500 ------- 1 0.0 4.0 37 37
r 1.214 0 2 cbr 500 ------- 1 0.0 4.0 40 40
+ 1.214 2 3 cbr 500 ------- 1 0.0 4.0 40 40
- 1.214 2 3 cbr 500 ------- 1 0.0 4.0 40 40
+ 1.215 0 2 cbr 500 ------- 1 0.0 4.0 43 43
- 1.215 0 2 cbr 500 ------- 1 0.0 4.0 43 43
r 1.217 3 4 cbr 500 ------- 1 0.0 4.0 35 35
r 1.218 2 3 cbr 500 ------- 1 0.0 4.0 38 38
+ 1.218 3 4 cbr 500 ------- 1 0.0 4.0 38 38
- 1.218 3 4 cbr 500 ------- 1 0.0 4.0 38 38
r 1.219 0 2 cbr 500 ------- 1 0.0 4.0 41 41
+ 1.219 2 3 cbr 500 ------- 1 0.0 4.0 41 41
- 1.219 2 3 cbr 500 ------- 1 0.0 4.0 41 41
+ 1.22 0 2 cbr 500 ------- 1 0.0 4.0 44 44
- 1.22 0 2 cbr 500 ------- 1 0.0 4.0 44 44
r 1.222 3 4 cbr 500 ------- 1 0.0 4.0 36 36
r 1.223 2 3 cbr 500 ------- 1 0.0 4.0 39 39
+ 1.223 3 4 cbr 500 ------- 1 0.0 4.0 39 39
- 1.223 3 4 cbr 500 ------- 1 0.0 4.0 39 39
r 1.224 0 2 cbr 500 ------- 1 0.0 4.0 42 42
+ 1.224 2 3 cbr 500 ------- 1 0.0 4.0 42 42
- 1.224 2 3 cbr 500 ------- 1 0.0 4.0 42 42
+ 1.225 0 2 cbr 500 ------- 1 0.0 4.0 45 45
- 1.225 0 2 cbr 500 ------- 1 0.0 4.0 45 45
r 1.227 3 4 cbr 500 ------- 1 0.0 4.0 37 37
r 1.228 2 3 cbr 500 ------- 1 0.0 4.0 40 40
+ 1.228 3 4 cbr 500 ------- 1 0.0 4.0 40 40
- 1.228 3 4 cbr 500 ------- 1 0.0 4.0 40 40
r 1.229 0 2 cbr 500 ------- 1 0.0 4.0 43 43
+ 1.229 2 3 cbr 500 ------- 1 0.0 4.0 43 43
- 1.229 2 3 cbr 500 ------- 1 0.0 4.0 43 43
+ 1.23 0 2 cbr 500 ------- 1 0.0 4.0 46 46
- 1.23 0 2 cbr 500 ------- 1 0.0 4.0 46 46
r 1.232 3 4 cbr 500 ------- 1 0.0 4.0 38 38
r 1.233 2 3 cbr 500 ------- 1 0.0 4.0 41 41
+ 1.233 3 4 cbr 500 ------- 1 0.0 4.0 41 41
- 1.233 3 4 cbr 500 ------- 1 0.0 4.0 41 41
r 1.234 0 2 cbr 500 ------- 1 0.0 4.0 44 44
+ 1.234 2 3 cbr 500 ------- 1 0.0 4.0 44 44
- 1.234 2 3 cbr 500 ------- 1 0.0 4.0 44 44
+ 1.235 0 2 cbr 500 ------- 1 0.0 4.0 47 47
- 1.235 0 2 cbr 500 ------- 1 0.0 4.0 47 47
r 1.237 3 4 cbr 500 ------- 1 0.0 4.0 39 39
r 1.238 2 3 cbr 500 ------- 1 0.0 4.0 42 42
+ 1.238 3 4 cbr 500 ------- 1 0.0 4.0 42 42
- 1.238 3 4 cbr 500 ------- 1 0.0 4.0 42 42
r 1.239 0 2 cbr 500 ------- 1 0.0 4.0 45 45
+ 1.239 2 3 cbr 500 ------- 1 0.0 4.0 45 45
- 1.239 2 3 cbr 500 ------- 1 0.0 4.0 45 45
+ 1.24 0 2 cbr 500 ------- 1 0.0 4.0 48 48
- 1.24 0 2 cbr 500 ------- 1 0.0 4.0 48 48
r 1.242 3 4 cbr 500 ------- 1 0.0 4.0 40 40
r 1.243 2 3 cbr 500 ------- 1 0.0 4.0 43 43
+ 1.243 3 4 cbr 500 ------- 1 0.0 4.0 43 43
- 1.243 3 4 cbr 500 ------- 1 0.0 4.0 43 43
r 1.244 0 2 cbr 500 ------- 1 0.0 4.0 46 46
+ 1.244 2 3 cbr 500 ------- 1 0.0 4.0 46 46
- 1.244 2 3 cbr 500 ------- 1 0.0 4.0 46 46
+ 1.245 0 2 cbr 500 ------- 1 0.0 4.0 49 49
- 1.245 0 2 cbr 500 ------- 1 0.0 4.0 49 49
r 1.247 3 4 cbr 500 ------- 1 0.0 4.0 41 41
r 1.248 2 3 cbr 500 ------- 1 0.0 4.0 44 44
+ 1.248 3 4 cbr 500 ------- 1 0.0 4.0 44 44
- 1.248 3 4 cbr 500 ------- 1 0.0 4.0 44 44
r 1.249 0 2 cbr 500 ------- 1 0.0 4.0 47 47
+ 1.249 2 3 cbr 500 ------- 1 0.0 4.0 47 47
- 1.249 2 3 cbr 500 ------- 1 0.0 4.0 47 47
+ 1.25 0 2 cbr 500 ------- 1 0.0 4.0 50 50
- 1.25 0 2 cbr 500 ------- 1 0.0 4.0 50 50
r 1.252 3 4 cbr 500 ------- 1 0.0 4.0 42 42
r 1.253 2 3 cbr 500 ------- 1 0.0 4.0 45 45
+ 1.253 3 4 cbr 500 ------- 1 0.0 4.0 45 45
- 1.253 3 4 cbr 500 ------- 1 0.0 4.0 45 45
r 1.254 0 2 cbr 500 ------- 1 0.0 4.0 48 48
+ 1.254 2 3 cbr 500 ------- 1 0.0 4.0 48 48
- 1.254 2 3 cbr 500 ------- 1 0.0 4.0 48 48
+ 1.255 0 2 cbr 500 ------- 1 0.0 4.0 51 51
- 1.255 0 2 cbr 500 ------- 1 0.0 4.0 51 51
r 1.257 3 4 cbr 500 ------- 1 0.0 4.0 43 43
r 1.258 2 3 cbr 500 ------- 1 0.0 4.0 46 46
+ 1.258 3 4 cbr 500 ------- 1 0.0 4.0 46 46
- 1.258 3 4 cbr 500 ------- 1 0.0 4.0 46 46
r 1.259 0 2 cbr 500 ------- 1 0.0 4.0 49 49
+ 1.259 2 3 cbr 500 ------- 1 0.0 4.0 49 49
- 1.259 2 3 cbr 500 ------- 1 0.0 4.0 49 49
+ 1.26 0 2 cbr 500 ------- 1 0.0 4.0 52 52
- 1.26 0 2 cbr 500 ------- 1 0.0 4.0 52 52
r 1.262 3 4 cbr 500 ------- 1 0.0 4.0 44 44
r 1.263 2 3 cbr 500 ------- 1 0.0 4.0 47 47
+ 1.263 3 4 cbr 500 ------- 1 0.0 4.0 47 47
- 1.263 3 4 cbr 500 ------- 1 0.0 4.0 47 47
r 1.264 0 2 cbr 500 ------- 1 0.0 4.0 50 50
+ 1.264 2 3 cbr 500 ------- 1 0.0 4.0 50 50
- 1.264 2 3 cbr 500 ------- 1 0.0 4.0 50 50
+ 1.265 0 2 cbr 500 ------- 1 0.0 4.0 53 53
- 1.265 0 2 cbr 500 ------- 1 0.0 4.0 53 53
r 1.267 3 4 cbr 500 ------- 1 0.0 4.0 45 45
r 1.268 2 3 cbr 500 ------- 1 0.0 4.0 48 48
+ 1.268 3 4 cbr 500 ------- 1 0.0 4.0 48 48
- 1.268 3 4 cbr 500 ------- 1 0.0 4.0 48 48
r 1.269 0 2 cbr 500 ------- 1 0.0 4.0 51 51
+ 1.269 2 3 cbr 500 ------- 1 0.0 4.0 51 51
- 1.269 2 3 cbr 500 ------- 1 0.0 4.0 51 51
+ 1.27 0 2 cbr 500 ------- 1 0.0 4.0 54 54
- 1.27 0 2 cbr 500 ------- 1 0.0 4.0 54 54
r 1.272 3 4 cbr 500 ------- 1 0.0 4.0 46 46
r 1.273 2 3 cbr 500 ------- 1 0.0 4.0 49 49
+ 1.273 3 4 cbr 500 ------- 1 0.0 4.0 49 49
- 1.273 3 4 cbr 500 ------- 1 0.0 4.0 49 49
r 1.274 0 2 cbr 500 ------- 1 0.0 4.0 52 52
+ 1.274 2 3 cbr 500 ------- 1 0.0 4.0 52 52
- 1.274 2 3 cbr 500 ------- 1 0.0 4.0 52 52
+ 1.275 0 2 cbr 500 ------- 1 0.0 4.0 55 55
- 1.275 0 2 cbr 500 ------- 1 0.0 4.0 55 55
r 1.277 3 4 cbr 500 ------- 1 0.0 4.0 47 47
r 1.278 2 3 cbr 500 ------- 1 0.0 4.0 50 50
+ 1.278 3 4 cbr 500 ------- 1 0.0 4.0 50 50
- 1.278 3 4 cbr 500 ------- 1 0.0 4.0 50 50
r 1.279 0 2 cbr 500 ------- 1 0.0 4.0 53 53
+ 1.279 2 3 cbr 500 ------- 1 0.0 4.0 53 53
- 1.279 2 3 cbr 500 ------- 1 0.0 4.0 53 53
+ 1.28 0 2 cbr 500 ------- 1 0.0 4.0 56 56
- 1.28 0 2 cbr 500 ------- 1 0.0 4.0 56 56
r 1.282 3 4 cbr 500 ------- 1 0.0 4.0 48 48
r 1.283 2 3 cbr 500 ------- 1 0.0 4.0 51 51
+ 1.283 3 4 cbr 500 ------- 1 0.0 4.0 51 51
- 1.283 3 4 cbr 500 ------- 1 0.0 4.0 51 51
r 1.284 0 2 cbr 500 ------- 1 0.0 4.0 54 54
+ 1.284 2 3 cbr 500 ------- 1 0.0 4.0 54 54
- 1.284 2 3 cbr 500 ------- 1 0.0 4.0 54 54
+ 1.285 0 2 cbr 500 ------- 1 0.0 4.0 57 57
- 1.285 0 2 cbr 500 ------- 1 0.0 4.0 57 57
r 1.287 3 4 cbr 500 ------- 1 0.0 4.0 49 49
r 1.288 2 3 cbr 500 ------- 1 0.0 4.0 52 52
+ 1.288 3 4 cbr 500 ------- 1 0.0 4.0 52 52
- 1.288 3 4 cbr 500 ------- 1 0.0 4.0 52 52
r 1.289 0 2 cbr 500 ------- 1 0.0 4.0 55 55
+ 1.289 2 3 cbr 500 ------- 1 0.0 4.0 55 55
- 1.289 2 3 cbr 500 ------- 1 0.0 4.0 55 55
+ 1.29 0 2 cbr 500 ------- 1 0.0 4.0 58 58
- 1.29 0 2 cbr 500 ------- 1 0.0 4.0 58 58
r 1.292 3 4 cbr 500 ------- 1 0.0 4.0 50 50
r 1.293 2 3 cbr 500 ------- 1 0.0 4.0 53 53
+ 1.293 3 4 cbr 500 ------- 1 0.0 4.0 53 53
- 1.293 3 4 cbr 500 ------- 1 0.0 4.0 53 53
r 1.294 0 2 cbr 500 ------- 1 0.0 4.0 56 56
+ 1.294 2 3 cbr 500 ------- 1 0.0 4.0 56 56
- 1.294 2 3 cbr 500 ------- 1 0.0 4.0 56 56
+ 1.295 0 2 cbr 500 ------- 1 0.0 4.0 59 59
- 1.295 0 2 cbr 500 ------- 1 0.0 4.0 59 59
r 1.297 3 4 cbr 500 ------- 1 0.0 4.0 51 51
r 1.298 2 3 cbr 500 ------- 1 0.0 4.0 54 54
+ 1.298 3 4 cbr 500 ------- 1 0.0 4.0 54 54
- 1.298 3 4 cbr 500 ------- 1 0.0 4.0 54 54
r 1.299 0 2 cbr 500 ------- 1 0.0 4.0 57 57
+ 1.299 2 3 cbr 500 ------- 1 0.0 4.0 57 57
- 1.299 2 3 cbr 500 ------- 1 0.0 4.0 57 57
+ 1.3 0 2 cbr 500 ------- 1 0.0 4.0 60 60
- 1.3 0 2 cbr 500 ------- 1 0.0 4.0 60 60
r 1.302 3 4 cbr 500 ------- 1 0.0 4.0 52 52
r 1.303 2 3 cbr 500 ------- 1 0.0 4.0 55 55
+ 1.303 3 4 cbr 500 ------- 1 0.0 4.0 55 55
- 1.303 3 4 cbr 500 ------- 1 0.0 4.0 55 55
r 1.304 0 2 cbr 500 ------- 1 0.0 4.0 58 58
+ 1.304 2 3 cbr 500 ------- 1 0.0 4.0 58 58
- 1.304 2 3 cbr 500 ------- 1 0.0 4.0 58 58
+ 1.305 0 2 cbr 500 ------- 1 0.0 4.0 61 61
- 1.305 0 2 cbr 500 ------- 1 0.0 4.0 61 61
r 1.307 3 4 cbr 500 ------- 1 0.0 4.0 53 53
r 1.308 2 3 cbr 500 ------- 1 0.0 4.0 56 56
+ 1.308 3 4 cbr 500 ------- 1 0.0 4.0 56 56
- 1.308 3 4 cbr 500 ------- 1 0.0 4.0 56 56
r 1.309 0 2 cbr 500 ------- 1 0.0 4.0 59 59
+ 1.309 2 3 cbr 500 ------- 1 0.0 4.0 59 59
- 1.309 2 3 cbr 500 ------- 1 0.0 4.0 59 59
+ 1.31 0 2 cbr 500 ------- 1 0.0 4.0 62 62
- 1.31 0 2 cbr 500 ------- 1 0.0 4.0 62 62
r 1.312 3 4 cbr 500 ------- 1 0.0 4.0 54 54
r 1.313 2 3 cbr 500 ------- 1 0.0 4.0 57 57
+ 1.313 3 4 cbr 500 ------- 1 0.0 4.0 57 57
- 1.313 3 4 cbr 500 ------- 1 0.0 4.0 57 57
r 1.314 0 2 cbr 500 ------- 1 0.0 4.0 60 60
+ 1.314 2 3 cbr 500 ------- 1 0.0 4.0 60 60
- 1.314 2 3 cbr 500 ------- 1 0.0 4.0 60 60
+ 1.315 0 2 cbr 500 ------- 1 0.0 4.0 63 63
- 1.315 0 2 cbr 500 ------- 1 0.0 4.0 63 63
r 1.317 3 4 cbr 500 ------- 1 0.0 4.0 55 55
r 1.318 2 3 cbr 500 ------- 1 0.0 4.0 58 58
+ 1.318 3 4 cbr 500 ------- 1 0.0 4.0 58 58
- 1.318 3 4 cbr 500 ------- 1 0.0 4.0 58 58
r 1.319 0 2 cbr 500 ------- 1 0.0 4.0 61 61
+ 1.319 2 3 cbr 500 ------- 1 0.0 4.0 61 61
- 1.319 2 3 cbr 500 ------- 1 0.0 4.0 61 61
+ 1.32 0 2 cbr 500 ------- 1 0.0 4.0 64 64
- 1.32 0 2 cbr 500 ------- 1 0.0 4.0 64 64
r 1.322 3 4 cbr 500 ------- 1 0.0 4.0 56 56
r 1.323 2 3 cbr 500 ------- 1 0.0 4.0 59 59
+ 1.323 3 4 cbr 500 ------- 1 0.0 4.0 59 59
- 1.323 3 4 cbr 500 ------- 1 0.0 4.0 59 59
r 1.324 0 2 cbr 500 ------- 1 0.0 4.0 62 62
+ 1.324 2 3 cbr 500 ------- 1 0.0 4.0 62 62
- 1.324 2 3 cbr 500 ------- 1 0.0 4.0 62 62
+ 1.325 0 2 cbr 500 ------- 1 0.0 4.0 65 65
- 1.325 0 2 cbr 500 ------- 1 0.0 4.0 65 65
r 1.327 3 4 cbr 500 ------- 1 0.0 4.0 57 57
r 1.328 2 3 cbr 500 ------- 1 0.0 4.0 60 60
+ 1.328 3 4 cbr 500 ------- 1 0.0 4.0 60 60
- 1.328 3 4 cbr 500 ------- 1 0.0 4.0 60 60
r 1.329 0 2 cbr 500 ------- 1 0.0 4.0 63 63
+ 1.329 2 3 cbr 500 ------- 1 0.0 4.0 63 63
- 1.329 2 3 cbr 500 ------- 1 0.0 4.0 63 63
+ 1.33 0 2 cbr 500 ------- 1 0.0 4.0 66 66
- 1.33 0 2 cbr 500 ------- 1 0.0 4.0 66 66
r 1.332 3 4 cbr 500 ------- 1 0.0 4.0 58 58
r 1.333 2 3 cbr 500 ------- 1 0.0 4.0 61 61
+ 1.333 3 4 cbr 500 ------- 1 0.0 4.0 61 61
- 1.333 3 4 cbr 500 ------- 1 0.0 4.0 61 61
r 1.334 0 2 cbr 500 ------- 1 0.0 4.0 64 64
+ 1.334 2 3 cbr 500 ------- 1 0.0 4.0 64 64
- 1.334 2 3 cbr 500 ------- 1 0.0 4.0 64 64
+ 1.335 0 2 cbr 500 ------- 1 0.0 4.0 67 67
- 1.335 0 2 cbr 500 ------- 1 0.0 4.0 67 67
r 1.337 3 4 cbr 500 ------- 1 0.0 4.0 59 59
r 1.338 2 3 cbr 500 ------- 1 0.0 4.0 62 62
+ 1.338 3 4 cbr 500 ------- 1 0.0 4.0 62 62
- 1.338 3 4 cbr 500 ------- 1 0.0 4.0 62 62
r 1.339 0 2 cbr 500 ------- 1 0.0 4.0 65 65
+ 1.339 2 3 cbr 500 ------- 1 0.0 4.0 65 65
- 1.339 2 3 cbr 500 ------- 1 0.0 4.0 65 65
+ 1.34 0 2 cbr 500 ------- 1 0.0 4.0 68 68
- 1.34 0 2 cbr 500 ------- 1 0.0 4.0 68 68
r 1.342 3 4 cbr 500 ------- 1 0.0 4.0 60 60
r 1.343 2 3 cbr 500 ------- 1 0.0 4.0 63 63
+ 1.343 3 4 cbr 500 ------- 1 0.0 4.0 63 63
- 1.343 3 4 cbr 500 ------- 1 0.0 4.0 63 63
r 1.344 0 2 cbr 500 ------- 1 0.0 4.0 66 66
+ 1.344 2 3 cbr 500 ------- 1 0.0 4.0 66 66
- 1.344 2 3 cbr 500 ------- 1 0.0 4.0 66 66
+ 1.345 0 2 cbr 500 ------- 1 0.0 4.0 69 69
- 1.345 0 2 cbr 500 ------- 1 0.0 4.0 69 69
r 1.347 3 4 cbr 500 ------- 1 0.0 4.0 61 61
r 1.348 2 3 cbr 500 ------- 1 0.0 4.0 64 64
+ 1.348 3 4 cbr 500 ------- 1 0.0 4.0 64 64
- 1.348 3 4 cbr 500 ------- 1 0.0 4.0 64 64
r 1.349 0 2 cbr 500 ------- 1 0.0 4.0 67 67
+ 1.349 2 3 cbr 500 ------- 1 0.0 4.0 67 67
- 1.349 2 3 cbr 500 ------- 1 0.0 4.0 67 67
+ 1.35 0 2 cbr 500 ------- 1 0.0 4.0 70 70
- 1.35 0 2 cbr 500 ------- 1 0.0 4.0 70 70
r 1.352 3 4 cbr 500 ------- 1 0.0 4.0 62 62
r 1.353 2 3 cbr 500 ------- 1 0.0 4.0 65 65
+ 1.353 3 4 cbr 500 ------- 1 0.0 4.0 65 65
- 1.353 3 4 cbr 500 ------- 1 0.0 4.0 65 65
r 1.354 0 2 cbr 500 ------- 1 0.0 4.0 68 68
+ 1.354 2 3 cbr 500 ------- 1 0.0 4.0 68 68
- 1.354 2 3 cbr 500 ------- 1 0.0 4.0 68 68
+ 1.355 0 2 cbr 500 ------- 1 0.0 4.0 71 71
- 1.355 0 2 cbr 500 ------- 1 0.0 4.0 71 71
r 1.357 3 4 cbr 500 ------- 1 0.0 4.0 63 63
r 1.358 2 3 cbr 500 ------- 1 0.0 4.0 66 66
+ 1.358 3 4 cbr 500 ------- 1 0.0 4.0 66 66
- 1.358 3 4 cbr 500 ------- 1 0.0 4.0 66 66
r 1.359 0 2 cbr 500 ------- 1 0.0 4.0 69 69
+ 1.359 2 3 cbr 500 ------- 1 0.0 4.0 69 69
- 1.359 2 3 cbr 500 ------- 1 0.0 4.0 69 69
+ 1.36 0 2 cbr 500 ------- 1 0.0 4.0 72 72
- 1.36 0 2 cbr 500 ------- 1 0.0 4.0 72 72
r 1.362 3 4 cbr 500 ------- 1 0.0 4.0 64 64
r 1.363 2 3 cbr 500 ------- 1 0.0 4.0 67 67
+ 1.363 3 4 cbr 500 ------- 1 0.0 4.0 67 67
- 1.363 3 4 cbr 500 ------- 1 0.0 4.0 67 67
r 1.364 0 2 cbr 500 ------- 1 0.0 4.0 70 70
+ 1.364 2 3 cbr 500 ------- 1 0.0 4.0 70 70
- 1.364 2 3 cbr 500 ------- 1 0.0 4.0 70 70
+ 1.365 0 2 cbr 500 ------- 1 0.0 4.0 73 73
- 1.365 0 2 cbr 500 ------- 1 0.0 4.0 73 73
r 1.367 3 4 cbr 500 ------- 1 0.0 4.0 65 65
r 1.368 2 3 cbr 500 ------- 1 0.0 4.0 68 68
+ 1.368 3 4 cbr 500 ------- 1 0.0 4.0 68 68
- 1.368 3 4 cbr 500 ------- 1 0.0 4.0 68 68
r 1.369 0 2 cbr 500 ------- 1 0.0 4.0 71 71
+ 1.369 2 3 cbr 500 ------- 1 0.0 4.0 71 71
- 1.369 2 3 cbr 500 ------- 1 0.0 4.0 71 71
+ 1.37 0 2 cbr 500 ------- 1 0.0 4.0 74 74
- 1.37 0 2 cbr 500 ------- 1 0.0 4.0 74 74
r 1.372 3 4 cbr 500 ------- 1 0.0 4.0 66 66
r 1.373 2 3 cbr 500 ------- 1 0.0 4.0 69 69
+ 1.373 3 4 cbr 500 ------- 1 0.0 4.0 69 69
- 1.373 3 4 cbr 500 ------- 1 0.0 4.0 69 69
r 1.374 0 2 cbr 500 ------- 1 0.0 4.0 72 72
+ 1.374 2 3 cbr 500 ------- 1 0.0 4.0 72 72
- 1.374 2 3 cbr 500 ------- 1 0.0 4.0 72 72
+ 1.375 0 2 cbr 500 ------- 1 0.0 4.0 75 75
- 1.375 0 2 cbr 500 ------- 1 0.0 4.0 75 75
r 1.377 3 4 cbr 500 ------- 1 0.0 4.0 67 67
r 1.378 2 3 cbr 500 ------- 1 0.0 4.0 70 70
+ 1.378 3 4 cbr 500 ------- 1 0.0 4.0 70 70
- 1.378 3 4 cbr 500 ------- 1 0.0 4.0 70 70
r 1.379 0 2 cbr 500 ------- 1 0.0 4.0 73 73
+ 1.379 2 3 cbr 500 ------- 1 0.0 4.0 73 73
- 1.379 2 3 cbr 500 ------- 1 0.0 4.0 73 73
+ 1.38 0 2 cbr 500 ------- 1 0.0 4.0 76 76
- 1.38 0 2 cbr 500 ------- 1 0.0 4.0 76 76
r 1.382 3 4 cbr 500 ------- 1 0.0 4.0 68 68
r 1.383 2 3 cbr 500 ------- 1 0.0 4.0 71 71
+ 1.383 3 4 cbr 500 ------- 1 0.0 4.0 71 71
- 1.383 3 4 cbr 500 ------- 1 0.0 4.0 71 71
r 1.384 0 2 cbr 500 ------- 1 0.0 4.0 74 74
+ 1.384 2 3 cbr 500 ------- 1 0.0 4.0 74 74
- 1.384 2 3 cbr 500 ------- 1 0.0 4.0 74 74
+ 1.385 0 2 cbr 500 ------- 1 0.0 4.0 77 77
- 1.385 0 2 cbr 500 ------- 1 0.0 4.0 77 77
r 1.387 3 4 cbr 500 ------- 1 0.0 4.0 69 69
r 1.388 2 3 cbr 500 ------- 1 0.0 4.0 72 72
+ 1.388 3 4 cbr 500 ------- 1 0.0 4.0 72 72
- 1.388 3 4 cbr 500 ------- 1 0.0 4.0 72 72
r 1.389 0 2 cbr 500 ------- 1 0.0 4.0 75 75
+ 1.389 2 3 cbr 500 ------- 1 0.0 4.0 75 75
- 1.389 2 3 cbr 500 ------- 1 0.0 4.0 75 75
+ 1.39 0 2 cbr 500 ------- 1 0.0 4.0 78 78
- 1.39 0 2 cbr 500 ------- 1 0.0 4.0 78 78
r 1.392 3 4 cbr 500 ------- 1 0.0 4.0 70 70
r 1.393 2 3 cbr 500 ------- 1 0.0 4.0 73 73
+ 1.393 3 4 cbr 500 ------- 1 0.0 4.0 73 73
- 1.393 3 4 cbr 500 ------- 1 0.0 4.0 73 73
r 1.394 0 2 cbr 500 ------- 1 0.0 4.0 76 76
+ 1.394 2 3 cbr 500 ------- 1 0.0 4.0 76 76
- 1.394 2 3 cbr 500 ------- 1 0.0 4.0 76 76
+ 1.395 0 2 cbr 500 ------- 1 0.0 4.0 79 79
- 1.395 0 2 cbr 500 ------- 1 0.0 4.0 79 79
r 1.397 3 4 cbr 500 ------- 1 0.0 4.0 71 71
r 1.398 2 3 cbr 500 ------- 1 0.0 4.0 74 74
+ 1.398 3 4 cbr 500 ------- 1 0.0 4.0 74 74
- 1.398 3 4 cbr 500 ------- 1 0.0 4.0 74 74